# vtk DataFile Version 3.0
Scalar Field Data
ASCII
DATASET STRUCTURED_POINTS
DIMENSIONS 250 250 1
ORIGIN 0 0 0
SPACING 0.004 0.004 1
POINT_DATA 62500
SCALARS scalars double
LOOKUP_TABLE default
0
0
0
0
0
0
0
0
0
0
0
0
0
0
0
0
0
0
0
0
0
0
0
0
0
0
0
0
0
0
0
0
0
0
0
0
0
0
0
0
0
0
0
0
0
0
0
0
0
0
0
0
0
0
0
0
0
0
0
0
0
0
0
0
0
0
0
0
0
0
0
0
0
0
0
0
0
0
0
0
0
0
0
0
0
0
0
0
0
0
0
0
0
0
0
0
0
0
0
0
0
0
0
0
0
0
0
0
0
0
0
0
0
0
0
0
0
0
0
0
0
0
0
0
0
0
0
0
0
0
0
0
0
0
0
0
0
0
0
0
0
0
0
0
0
0
0
0
0
0
0
0
0
0
0
0
0
0
0
0
0
0
0
0
0
0
0
0
0
0
0
0
0
0
0
0
0
0
0
0
0
0
0
0
0
0
0
0
0
0
0
0
0
0
0
0
0
0
0
0
0
0
0
0
0
0
0
0
0
0
0
0
0
0
0
0
0
0
0
0
0
0
0
0
0
0
0
0
0
0
0
0
0
0
0
0
0
0
0
0
0
0
0
0
0
0
0
0
0
0
0
0.000421512
0.000843005
0.00126446
0.00168586
0.00210718
0.0025284
0.00294952
0.0033705
0.00379133
0.00421199
0.00463246
0.00505273
0.00547278
0.00589259
0.00631214
0.00673143
0.00715042
0.00756912
0.00798749
0.00840554
0.00882324
0.00924058
0.00965754
0.0100741
0.0104903
0.0109061
0.0113215
0.0117364
0.0121509
0.0125649
0.0129785
0.0133917
0.0138044
0.0142166
0.0146283
0.0150396
0.0154504
0.0158607
0.0162705
0.0166798
0.0170887
0.017497
0.0179049
0.0183123
0.0187193
0.0191258
0.0195318
0.0199374
0.0203426
0.0207473
0.0211517
0.0215556
0.0219591
0.0223623
0.0227651
0.0231675
0.0235697
0.0239715
0.0243731
0.0247744
0.0251755
0.0255763
0.025977
0.0263775
0.0267779
0.0271782
0.0275785
0.0279787
0.0283789
0.0287791
0.0291794
0.0295799
0.0299805
0.0303812
0.0307822
0.0311835
0.0315851
0.0319871
0.0323896
0.0327924
0.0331959
0.0335998
0.0340045
0.0344098
0.0348159
0.0352227
0.0356305
0.0360392
0.0364488
0.0368596
0.0372715
0.0376846
0.0380989
0.0385146
0.0389318
0.0393505
0.0397707
0.0401927
0.0406164
0.0410419
0.0414694
0.0418989
0.0423305
0.0427644
0.0432005
0.0436391
0.0440802
0.0445239
0.0449704
0.0454197
0.045872
0.0463274
0.046786
0.0472479
0.0477133
0.0481823
0.048655
0.0491316
0.0496122
0.0500969
0.0505859
0.0510794
0.0515775
0.0520804
0.0525883
0.0531013
0.0536195
0.0541433
0.0546727
0.055208
0.0557494
0.056297
0.0568512
0.057412
0.0579798
0.0585547
0.0591371
0.0597271
0.060325
0.0609311
0.0615457
0.062169
0.0628014
0.0634432
0.0640945
0.0647559
0.0654277
0.0661101
0.0668036
0.0675085
0.0682253
0.0689543
0.069696
0.0704509
0.0712193
0.0720018
0.0727989
0.0736111
0.0744389
0.075283
0.0761439
0.0770222
0.0779187
0.0788339
0.0797687
0.0807236
0.0816997
0.0826975
0.0837181
0.0847624
0.0858312
0.0869256
0.0880466
0.0891954
0.0903731
0.0915809
0.0928202
0.0940924
0.0953988
0.0967411
0.0981208
0.0995397
0.101
0.102502
0.10405
0.105645
0.10729
0.108986
0.110738
0.112546
0.114416
0.116349
0.118349
0.120421
0.122567
0.124793
0.127102
0.129501
0.131994
0.134587
0.137287
0.1401
0.143034
0.146096
0.149297
0.152646
0.156152
0.159829
0.163688
0.167745
0.172014
0.176513
0.181261
0.186279
0.191593
0.197228
0.203215
0.209589
0.216387
0.223655
0.231442
0.239807
0.248816
0.258547
0.269091
0.280554
0.293061
0.306763
0.321838
0.338504
0.357026
0.377733
0.401034
0.42745
0.457649
0.492503
0.533177
0.581259
0.638969
0.709514
0.797696
0.911038
1.06201
1.27276
1.58623
2.09492
3.02422
5.00041
10
0
0.000842571
0.0016851
0.00252756
0.0033699
0.00421209
0.00505409
0.00589586
0.00673736
0.00757857
0.00841943
0.00925992
0.0101
0.0109396
0.0117788
0.0126175
0.0134556
0.0142931
0.01513
0.0159663
0.0168019
0.0176369
0.0184711
0.0193046
0.0201373
0.0209692
0.0218003
0.0226305
0.0234599
0.0242884
0.0251161
0.0259428
0.0267686
0.0275935
0.0284174
0.0292404
0.0300625
0.0308835
0.0317037
0.0325228
0.033341
0.0341582
0.0349744
0.0357897
0.0366041
0.0374175
0.03823
0.0390416
0.0398523
0.0406621
0.0414711
0.0422792
0.0430865
0.0438931
0.0446989
0.045504
0.0463084
0.0471121
0.0479153
0.0487179
0.04952
0.0503216
0.0511228
0.0519236
0.0527241
0.0535243
0.0543244
0.0551243
0.0559242
0.056724
0.057524
0.058324
0.0591243
0.0599249
0.0607259
0.0615274
0.0623294
0.063132
0.0639354
0.0647397
0.0655449
0.0663511
0.0671585
0.0679671
0.0687772
0.0695887
0.0704018
0.0712167
0.0720335
0.0728522
0.0736731
0.0744962
0.0753218
0.0761499
0.0769807
0.0778144
0.0786511
0.0794909
0.0803342
0.0811809
0.0820313
0.0828856
0.0837439
0.0846065
0.0854735
0.0863452
0.0872217
0.0881032
0.08899
0.0898822
0.0907802
0.091684
0.0925941
0.0935106
0.0944337
0.0953637
0.0963009
0.0972456
0.098198
0.0991584
0.100127
0.101104
0.102091
0.103086
0.104091
0.105106
0.106131
0.107167
0.108214
0.109272
0.110341
0.111423
0.112518
0.113625
0.114746
0.115881
0.11703
0.118193
0.119372
0.120567
0.121779
0.123007
0.124253
0.125516
0.126799
0.128101
0.129423
0.130765
0.132129
0.133515
0.134923
0.136356
0.137813
0.139295
0.140804
0.142339
0.143903
0.145496
0.147119
0.148774
0.150461
0.152181
0.153936
0.155728
0.157557
0.159425
0.161333
0.163284
0.165278
0.167318
0.169404
0.17154
0.173727
0.175967
0.178263
0.180616
0.18303
0.185507
0.188049
0.190659
0.193341
0.196098
0.198934
0.201851
0.204853
0.207946
0.211133
0.214419
0.217809
0.221308
0.224922
0.228656
0.232518
0.236515
0.240652
0.24494
0.249386
0.254
0.25879
0.26377
0.268949
0.27434
0.279958
0.285817
0.291933
0.298324
0.30501
0.312011
0.31935
0.327054
0.33515
0.34367
0.352648
0.362121
0.372134
0.382733
0.393973
0.405912
0.418619
0.432171
0.446655
0.462171
0.478833
0.496773
0.516144
0.537125
0.559924
0.584788
0.612011
0.641942
0.675008
0.711723
0.752726
0.798809
0.850972
0.910495
0.979038
1.0588
1.15274
1.26495
1.40124
1.57008
1.78429
2.06408
2.44266
2.97709
3.76907
5.00138
6.97727
10
0
0.00126336
0.00252667
0.00378986
0.00505287
0.00631566
0.00757817
0.00884032
0.0101021
0.0113634
0.0126242
0.0138844
0.0151441
0.016403
0.0176613
0.0189187
0.0201754
0.0214312
0.022686
0.02394
0.0251929
0.0264448
0.0276956
0.0289453
0.0301938
0.0314411
0.0326872
0.0339321
0.0351756
0.0364179
0.0376588
0.0388983
0.0401365
0.0413733
0.0426086
0.0438425
0.045075
0.0463061
0.0475357
0.0487638
0.0499905
0.0512157
0.0524395
0.0536619
0.0548828
0.0561023
0.0573204
0.0585372
0.0597526
0.0609667
0.0621795
0.0633911
0.0646014
0.0658106
0.0670187
0.0682256
0.0694316
0.0706366
0.0718406
0.0730438
0.0742463
0.075448
0.0766491
0.0778496
0.0790496
0.0802493
0.0814487
0.0826478
0.0838469
0.0850459
0.086245
0.0874444
0.088644
0.0898442
0.0910449
0.0922462
0.0934485
0.0946517
0.0958559
0.0970615
0.0982685
0.099477
0.100687
0.101899
0.103114
0.10433
0.105549
0.10677
0.107994
0.109222
0.110452
0.111686
0.112923
0.114164
0.11541
0.116659
0.117913
0.119172
0.120436
0.121705
0.12298
0.12426
0.125547
0.126839
0.128139
0.129445
0.130759
0.13208
0.133409
0.134747
0.136092
0.137447
0.138811
0.140184
0.141568
0.142962
0.144366
0.145782
0.14721
0.148649
0.150101
0.151565
0.153044
0.154535
0.156042
0.157563
0.159099
0.160651
0.16222
0.163805
0.165409
0.16703
0.16867
0.17033
0.172009
0.17371
0.175432
0.177176
0.178943
0.180734
0.182549
0.18439
0.186256
0.18815
0.190072
0.192023
0.194004
0.196015
0.198059
0.200136
0.202247
0.204394
0.206577
0.208798
0.211059
0.21336
0.215703
0.21809
0.220523
0.223002
0.225529
0.228107
0.230738
0.233422
0.236163
0.238962
0.241821
0.244744
0.247732
0.250788
0.253914
0.257114
0.260391
0.263747
0.267187
0.270713
0.274329
0.278039
0.281847
0.285758
0.289776
0.293906
0.298153
0.302522
0.30702
0.311652
0.316426
0.321347
0.326424
0.331664
0.337076
0.342668
0.348451
0.354435
0.360631
0.36705
0.373706
0.380613
0.387784
0.395237
0.402989
0.411058
0.419464
0.428231
0.437382
0.446943
0.456944
0.467415
0.478391
0.48991
0.502014
0.514749
0.528166
0.542322
0.55728
0.57311
0.589893
0.607715
0.626679
0.646895
0.668495
0.691624
0.71645
0.743167
0.771999
0.803206
0.837094
0.874021
0.914413
0.958776
1.00772
1.06199
1.1225
1.19036
1.26699
1.35418
1.45421
1.57009
1.7058
1.86672
2.06027
2.29693
2.59182
2.96722
3.45655
4.11024
5.00274
6.23479
7.90714
10
0
0.00168407
0.00336807
0.00505192
0.00673553
0.00841883
0.0101018
0.0117842
0.0134662
0.0151475
0.0168281
0.018508
0.0201871
0.0218653
0.0235425
0.0252187
0.0268938
0.0285678
0.0302405
0.0319119
0.033582
0.0352508
0.036918
0.0385838
0.040248
0.0419107
0.0435717
0.045231
0.0468886
0.0485444
0.0501985
0.0518507
0.053501
0.0551496
0.0567962
0.0584409
0.0600836
0.0617245
0.0633634
0.0650003
0.0666353
0.0682684
0.0698995
0.0715287
0.073156
0.0747814
0.0764049
0.0780266
0.0796465
0.0812647
0.0828811
0.0844959
0.086109
0.0877205
0.0893305
0.0909391
0.0925463
0.0941522
0.0957569
0.0973604
0.0989629
0.100564
0.102165
0.103765
0.105364
0.106963
0.108561
0.110159
0.111757
0.113355
0.114953
0.116551
0.11815
0.119749
0.121349
0.12295
0.124552
0.126155
0.12776
0.129366
0.130974
0.132585
0.134197
0.135812
0.13743
0.139051
0.140675
0.142302
0.143934
0.145569
0.147208
0.148852
0.1505
0.152154
0.153813
0.155478
0.157149
0.158826
0.16051
0.162201
0.163899
0.165605
0.167318
0.169041
0.170772
0.172512
0.174262
0.176022
0.177793
0.179575
0.181367
0.183172
0.184989
0.186819
0.188662
0.190518
0.19239
0.194275
0.196177
0.198094
0.200028
0.201979
0.203948
0.205935
0.207941
0.209967
0.212014
0.214081
0.216171
0.218283
0.220418
0.222578
0.224762
0.226973
0.22921
0.231475
0.233768
0.236091
0.238445
0.24083
0.243248
0.245699
0.248186
0.250708
0.253268
0.255866
0.258504
0.261183
0.263905
0.266671
0.269482
0.272341
0.275249
0.278207
0.281217
0.284282
0.287402
0.290581
0.29382
0.297121
0.300487
0.30392
0.307422
0.310996
0.314646
0.318372
0.32218
0.326071
0.330049
0.334118
0.338281
0.342541
0.346903
0.351372
0.35595
0.360644
0.365458
0.370396
0.375466
0.380671
0.386019
0.391516
0.397168
0.402983
0.408969
0.415133
0.421485
0.428033
0.434788
0.44176
0.44896
0.4564
0.464092
0.472052
0.480292
0.488829
0.497681
0.506864
0.516399
0.526307
0.536611
0.547336
0.558509
0.570158
0.582316
0.595018
0.6083
0.622206
0.636779
0.652071
0.668135
0.685033
0.702832
0.721605
0.741437
0.762419
0.784654
0.808259
0.833364
0.860116
0.888683
0.919255
0.952051
0.98732
1.02535
1.06648
1.1111
1.15966
1.21271
1.27089
1.33498
1.4059
1.48478
1.57301
1.67232
1.78487
1.91339
2.06142
2.23351
2.4357
2.67604
2.96541
3.3187
3.75628
4.30594
5.00442
5.8967
7.02777
8.41633
10
0
0.00210489
0.00420969
0.00631429
0.00841861
0.0105225
0.012626
0.0147289
0.0168311
0.0189325
0.0210331
0.0231328
0.0252314
0.0273289
0.0294252
0.0315202
0.0336138
0.035706
0.0377967
0.0398857
0.0419731
0.0440587
0.0461425
0.0482245
0.0503045
0.0523824
0.0544584
0.0565322
0.0586038
0.0606733
0.0627405
0.0648054
0.066868
0.0689282
0.0709861
0.0730416
0.0750946
0.0771452
0.0791934
0.0812391
0.0832824
0.0853233
0.0873617
0.0893977
0.0914313
0.0934625
0.0954914
0.0975179
0.0995422
0.101564
0.103584
0.105602
0.107618
0.109632
0.111643
0.113653
0.115662
0.117668
0.119673
0.121677
0.123679
0.12568
0.12768
0.129679
0.131678
0.133675
0.135672
0.137669
0.139665
0.141661
0.143658
0.145655
0.147652
0.14965
0.151649
0.153649
0.15565
0.157653
0.159658
0.161665
0.163674
0.165686
0.1677
0.169718
0.171739
0.173763
0.175792
0.177825
0.179862
0.181905
0.183952
0.186006
0.188065
0.190131
0.192203
0.194282
0.196369
0.198464
0.200567
0.202679
0.2048
0.20693
0.209071
0.211222
0.213384
0.215558
0.217743
0.219941
0.222153
0.224377
0.226616
0.22887
0.231139
0.233424
0.235725
0.238044
0.240381
0.242736
0.24511
0.247504
0.249919
0.252355
0.254814
0.257295
0.2598
0.26233
0.264885
0.267467
0.270076
0.272713
0.275379
0.278075
0.280803
0.283563
0.286356
0.289184
0.292047
0.294947
0.297885
0.300863
0.303881
0.306942
0.310046
0.313195
0.31639
0.319634
0.322927
0.326271
0.329669
0.333122
0.336631
0.3402
0.343829
0.347521
0.351279
0.355104
0.358999
0.362966
0.367009
0.371129
0.37533
0.379614
0.383985
0.388446
0.393
0.39765
0.402402
0.407257
0.412222
0.417298
0.422492
0.427808
0.433251
0.438826
0.444538
0.450394
0.456399
0.462559
0.468883
0.475376
0.482046
0.488901
0.495951
0.503203
0.510667
0.518354
0.526274
0.534438
0.54286
0.551551
0.560525
0.569799
0.579386
0.589305
0.599573
0.61021
0.621237
0.632677
0.644553
0.656892
0.669723
0.683075
0.696983
0.711482
0.726611
0.742414
0.758936
0.776229
0.794349
0.813357
0.83332
0.854312
0.876417
0.899724
0.924336
0.950364
0.977935
1.00719
1.03829
1.07141
1.10675
1.14455
1.18506
1.22859
1.27548
1.32614
1.38103
1.44068
1.50575
1.57698
1.65527
1.7417
1.83757
1.94445
2.06427
2.19944
2.35294
2.52853
2.73098
2.96639
3.24262
3.56984
3.96112
4.43311
5.00636
5.70464
6.55172
7.5631
8.73025
10
0
0.00252601
0.0050519
0.00757755
0.0101029
0.0126277
0.015152
0.0176755
0.0201983
0.0227202
0.025241
0.0277607
0.0302791
0.0327962
0.0353119
0.0378259
0.0403384
0.0428491
0.0453579
0.0478648
0.0503697
0.0528725
0.0553731
0.0578714
0.0603674
0.0628609
0.065352
0.0678405
0.0703265
0.0728097
0.0752903
0.0777681
0.0802431
0.0827152
0.0851845
0.0876509
0.0901144
0.0925749
0.0950325
0.0974871
0.0999388
0.102388
0.104833
0.107276
0.109716
0.112153
0.114588
0.117019
0.119448
0.121874
0.124297
0.126718
0.129136
0.131552
0.133966
0.136378
0.138787
0.141194
0.1436
0.146003
0.148405
0.150806
0.153205
0.155603
0.158
0.160396
0.162792
0.165187
0.167581
0.169976
0.172371
0.174766
0.177162
0.179558
0.181956
0.184355
0.186755
0.189157
0.191562
0.193969
0.196378
0.198791
0.201207
0.203626
0.20605
0.208478
0.210911
0.213349
0.215792
0.218242
0.220697
0.223159
0.225629
0.228106
0.230591
0.233084
0.235586
0.238098
0.24062
0.243152
0.245695
0.248249
0.250815
0.253394
0.255987
0.258593
0.261213
0.263848
0.266499
0.269166
0.27185
0.274552
0.277272
0.280011
0.28277
0.28555
0.288351
0.291174
0.29402
0.29689
0.299784
0.302704
0.305651
0.308625
0.311628
0.31466
0.317722
0.320817
0.323943
0.327104
0.330299
0.333531
0.3368
0.340107
0.343455
0.346843
0.350275
0.35375
0.357271
0.360839
0.364456
0.368123
0.371843
0.375616
0.379445
0.383331
0.387277
0.391284
0.395355
0.399492
0.403697
0.407972
0.41232
0.416743
0.421245
0.425827
0.430493
0.435246
0.440088
0.445023
0.450055
0.455187
0.460422
0.465765
0.471219
0.476789
0.482479
0.488294
0.494239
0.500319
0.506538
0.512903
0.51942
0.526095
0.532934
0.539944
0.547133
0.554508
0.562077
0.569849
0.577832
0.586037
0.594473
0.603151
0.612083
0.62128
0.630755
0.640522
0.650596
0.660991
0.671725
0.682814
0.694278
0.706137
0.718412
0.731127
0.744306
0.757976
0.772165
0.786906
0.802231
0.818177
0.834782
0.85209
0.870147
0.889002
0.908712
0.929335
0.950939
0.973593
0.997379
1.02238
1.0487
1.07644
1.10572
1.13666
1.16943
1.20417
1.24108
1.28036
1.32225
1.36701
1.41494
1.46638
1.52174
1.58146
1.64607
1.71618
1.7925
1.87588
1.9673
2.06795
2.17922
2.3028
2.44075
2.59556
2.77027
2.96865
3.19534
3.45611
3.75809
4.11006
4.52269
5.00853
5.5816
6.25592
7.04228
7.9425
8.94142
10
0
0.0029476
0.00589506
0.00884226
0.011789
0.0147353
0.0176808
0.0206256
0.0235694
0.0265121
0.0294536
0.0323938
0.0353326
0.0382697
0.0412051
0.0441388
0.0470704
0.0500001
0.0529275
0.0558527
0.0587756
0.0616959
0.0646137
0.0675288
0.0704412
0.0733507
0.0762573
0.079161
0.0820615
0.084959
0.0878533
0.0907443
0.093632
0.0965164
0.0993975
0.102275
0.105149
0.10802
0.110887
0.113751
0.116611
0.119468
0.122322
0.125172
0.128018
0.130862
0.133701
0.136538
0.139371
0.142202
0.145029
0.147853
0.150674
0.153492
0.156308
0.159121
0.161931
0.164739
0.167545
0.170349
0.17315
0.17595
0.178749
0.181546
0.184342
0.187136
0.18993
0.192724
0.195517
0.198309
0.201102
0.203895
0.206689
0.209484
0.21228
0.215078
0.217877
0.220678
0.223482
0.226289
0.229098
0.231912
0.234729
0.23755
0.240376
0.243207
0.246044
0.248886
0.251735
0.254591
0.257453
0.260324
0.263203
0.266091
0.268987
0.271894
0.274811
0.277739
0.280679
0.28363
0.286594
0.289572
0.292564
0.29557
0.298591
0.301629
0.304683
0.307754
0.310844
0.313952
0.317081
0.320229
0.323399
0.326592
0.329807
0.333046
0.33631
0.3396
0.342916
0.34626
0.349633
0.353036
0.35647
0.359935
0.363434
0.366966
0.370535
0.37414
0.377783
0.381465
0.385188
0.388953
0.392761
0.396614
0.400514
0.404461
0.408459
0.412507
0.416609
0.420765
0.424978
0.42925
0.433582
0.437977
0.442436
0.446963
0.451558
0.456225
0.460967
0.465784
0.470681
0.47566
0.480723
0.485874
0.491116
0.496451
0.501884
0.507418
0.513056
0.518802
0.524661
0.530635
0.53673
0.542949
0.549299
0.555782
0.562406
0.569174
0.576093
0.583169
0.590407
0.597815
0.605398
0.613165
0.621123
0.629279
0.637643
0.646223
0.655028
0.664068
0.673354
0.682896
0.692707
0.702799
0.713185
0.723878
0.734893
0.746247
0.757956
0.770038
0.782511
0.795396
0.808715
0.822491
0.836749
0.851515
0.866817
0.882687
0.899158
0.916265
0.934047
0.952545
0.971804
0.991873
1.0128
1.03466
1.05749
1.08138
1.10639
1.13261
1.16013
1.18905
1.21947
1.25152
1.28533
1.32105
1.35884
1.39889
1.44141
1.48661
1.53478
1.58619
1.64119
1.70015
1.76351
1.83177
1.90549
1.98534
2.07208
2.16662
2.26999
2.38344
2.50842
2.64667
2.80025
2.97163
3.1638
3.38032
3.6255
3.90449
4.22342
4.58949
5.0109
5.49658
6.05546
6.69502
7.41882
8.22306
9.09278
10
0
0.00336986
0.00673957
0.010109
0.0134779
0.0168462
0.0202137
0.0235803
0.0269458
0.03031
0.0336729
0.0370343
0.0403939
0.0437518
0.0471077
0.0504614
0.053813
0.0571622
0.0605089
0.063853
0.0671944
0.0705329
0.0738685
0.077201
0.0805303
0.0838564
0.0871791
0.0904984
0.0938142
0.0971263
0.100435
0.10374
0.107041
0.110338
0.113631
0.11692
0.120206
0.123487
0.126765
0.130038
0.133307
0.136573
0.139834
0.143092
0.146345
0.149595
0.152841
0.156083
0.159321
0.162556
0.165787
0.169014
0.172238
0.175459
0.178677
0.181892
0.185103
0.188312
0.191519
0.194723
0.197924
0.201124
0.204322
0.207518
0.210712
0.213906
0.217098
0.220289
0.223481
0.226671
0.229862
0.233054
0.236246
0.239439
0.242633
0.245829
0.249027
0.252227
0.25543
0.258636
0.261846
0.265059
0.268277
0.2715
0.274728
0.277962
0.281202
0.284448
0.287702
0.290963
0.294233
0.297511
0.300799
0.304097
0.307405
0.310725
0.314056
0.317399
0.320756
0.324126
0.327511
0.330911
0.334327
0.337759
0.341209
0.344677
0.348164
0.351671
0.355198
0.358747
0.362318
0.365913
0.369532
0.373176
0.376846
0.380544
0.384269
0.388024
0.39181
0.395627
0.399477
0.403361
0.407279
0.411235
0.415228
0.419259
0.423332
0.427446
0.431603
0.435805
0.440053
0.444349
0.448695
0.453092
0.457541
0.462046
0.466606
0.471226
0.475905
0.480647
0.485454
0.490327
0.495269
0.500283
0.50537
0.510534
0.515776
0.521099
0.526507
0.532002
0.537587
0.543266
0.54904
0.554915
0.560893
0.566977
0.573173
0.579483
0.585912
0.592464
0.599143
0.605955
0.612904
0.619995
0.627233
0.634624
0.642174
0.649889
0.657775
0.66584
0.674089
0.682531
0.691172
0.700023
0.70909
0.718383
0.727911
0.737685
0.747715
0.758011
0.768587
0.779455
0.790627
0.802117
0.813941
0.826114
0.838653
0.851576
0.864901
0.878648
0.892839
0.907497
0.922647
0.938313
0.954525
0.971312
0.988706
1.00674
1.02546
1.04489
1.06508
1.08609
1.10795
1.13073
1.15447
1.17926
1.20515
1.23222
1.26056
1.29026
1.32141
1.35413
1.38853
1.42476
1.46295
1.50328
1.54591
1.59106
1.63894
1.68981
1.74396
1.80169
1.86338
1.92943
2.00029
2.07651
2.15867
2.24749
2.34376
2.4484
2.56249
2.68728
2.82424
2.97508
3.14181
3.3268
3.53284
3.7632
4.02171
4.31278
4.64148
5.01344
5.4347
5.91128
6.44849
7.04971
7.71478
8.438
9.20648
10
0
0.00379299
0.00758579
0.0113782
0.0151702
0.0189614
0.0227517
0.026541
0.030329
0.0341156
0.0379007
0.041684
0.0454655
0.0492448
0.053022
0.0567968
0.060569
0.0643386
0.0681053
0.0718691
0.0756298
0.0793873
0.0831414
0.0868921
0.0906391
0.0943825
0.0981221
0.101858
0.105589
0.109317
0.11304
0.11676
0.120475
0.124185
0.127891
0.131593
0.13529
0.138983
0.142671
0.146355
0.150034
0.153708
0.157378
0.161044
0.164705
0.168361
0.172014
0.175662
0.179305
0.182945
0.18658
0.190211
0.193839
0.197463
0.201083
0.2047
0.208313
0.211923
0.21553
0.219135
0.222736
0.226336
0.229933
0.233528
0.237122
0.240714
0.244305
0.247895
0.251484
0.255073
0.258662
0.262252
0.265842
0.269433
0.273025
0.27662
0.280216
0.283815
0.287417
0.291022
0.294632
0.298245
0.301864
0.305488
0.309117
0.312753
0.316396
0.320046
0.323705
0.327372
0.331048
0.334733
0.33843
0.342137
0.345856
0.349587
0.353332
0.357091
0.360864
0.364652
0.368457
0.372278
0.376117
0.379975
0.383852
0.38775
0.391668
0.395609
0.399573
0.403561
0.407575
0.411614
0.41568
0.419775
0.423899
0.428053
0.43224
0.436459
0.440712
0.445
0.449325
0.453688
0.458091
0.462534
0.467019
0.471548
0.476123
0.480744
0.485413
0.490133
0.494905
0.49973
0.50461
0.509548
0.514545
0.519604
0.524726
0.529913
0.535168
0.540492
0.54589
0.551361
0.556911
0.56254
0.568251
0.574048
0.579933
0.58591
0.591981
0.598149
0.604418
0.610792
0.617274
0.623867
0.630577
0.637406
0.644359
0.65144
0.658655
0.666007
0.673502
0.681145
0.688941
0.696896
0.705017
0.713308
0.721777
0.730431
0.739277
0.748321
0.757573
0.76704
0.77673
0.786654
0.79682
0.807238
0.81792
0.828876
0.840118
0.851658
0.86351
0.875688
0.888205
0.901078
0.914323
0.927958
0.942001
0.956471
0.971391
0.986781
1.00267
1.01907
1.03602
1.05355
1.07168
1.09046
1.10991
1.13007
1.15099
1.1727
1.19526
1.21872
1.24313
1.26855
1.29505
1.32269
1.35156
1.38173
1.41331
1.44637
1.48105
1.51745
1.5557
1.59595
1.63836
1.68311
1.73038
1.7804
1.8334
1.88965
1.94945
2.01315
2.08112
2.15378
2.23162
2.31519
2.40511
2.50209
2.60695
2.72062
2.84417
2.97885
3.12606
3.28748
3.46499
3.6608
3.87744
4.11782
4.38521
4.68331
5.01614
5.38796
5.80303
6.26522
6.77736
7.34042
7.95245
8.60751
9.295
10
0
0.00421715
0.00843411
0.0126507
0.0168666
0.0210818
0.025296
0.029509
0.0337206
0.0379306
0.0421389
0.0463452
0.0505495
0.0547514
0.0589508
0.0631475
0.0673415
0.0715324
0.0757202
0.0799046
0.0840856
0.088263
0.0924366
0.0966064
0.100772
0.104934
0.109091
0.113244
0.117392
0.121536
0.125675
0.12981
0.13394
0.138064
0.142184
0.146299
0.150409
0.154514
0.158613
0.162708
0.166797
0.170882
0.174961
0.179035
0.183104
0.187169
0.191228
0.195282
0.199332
0.203377
0.207417
0.211453
0.215484
0.219511
0.223534
0.227554
0.231569
0.235581
0.239589
0.243594
0.247597
0.251596
0.255593
0.259588
0.263581
0.267572
0.271561
0.27555
0.279538
0.283525
0.287512
0.2915
0.295488
0.299477
0.303468
0.307461
0.311456
0.315453
0.319454
0.323459
0.327468
0.331481
0.3355
0.339525
0.343556
0.347594
0.351639
0.355693
0.359755
0.363827
0.367909
0.372001
0.376105
0.380222
0.384351
0.388494
0.392651
0.396824
0.401013
0.405218
0.409442
0.413684
0.417946
0.422228
0.426532
0.430858
0.435207
0.439581
0.443981
0.448407
0.452861
0.457343
0.461856
0.4664
0.470976
0.475586
0.480232
0.484913
0.489632
0.49439
0.499189
0.504029
0.508914
0.513843
0.518819
0.523843
0.528917
0.534043
0.539223
0.544458
0.549751
0.555102
0.560515
0.565992
0.571534
0.577144
0.582824
0.588576
0.594403
0.600307
0.606292
0.612359
0.618512
0.624753
0.631085
0.637511
0.644036
0.650661
0.657391
0.664228
0.671177
0.678242
0.685426
0.692733
0.700169
0.707737
0.715442
0.723289
0.731283
0.739429
0.747733
0.7562
0.764837
0.77365
0.782645
0.791829
0.80121
0.810794
0.82059
0.830606
0.84085
0.851332
0.86206
0.873046
0.8843
0.895832
0.907654
0.919778
0.932218
0.944987
0.9581
0.971571
0.985417
0.999654
1.0143
1.02938
1.0449
1.0609
1.07739
1.0944
1.11195
1.13007
1.14879
1.16815
1.18817
1.20889
1.23036
1.2526
1.27568
1.29962
1.3245
1.35035
1.37724
1.40524
1.43442
1.46484
1.4966
1.52979
1.56449
1.60082
1.6389
1.67884
1.7208
1.76492
1.81137
1.86034
1.91203
1.96667
2.02452
2.08585
2.15097
2.22025
2.29406
2.37286
2.45712
2.54742
2.64438
2.74871
2.86123
2.98285
3.11463
3.25775
3.41358
3.58366
3.76975
3.97385
4.19819
4.44529
4.71789
5.01899
5.35168
5.7191
6.12412
6.56906
7.05516
7.58202
8.14695
8.74443
9.36586
10
0
0.00464255
0.00928489
0.0139268
0.018568
0.0232084
0.0278476
0.0324856
0.037122
0.0417566
0.0463894
0.0510199
0.0556481
0.0602737
0.0648966
0.0695166
0.0741333
0.0787468
0.0833568
0.087963
0.0925655
0.0971639
0.101758
0.106348
0.110934
0.115514
0.120091
0.124662
0.129228
0.133789
0.138345
0.142896
0.147442
0.151982
0.156516
0.161045
0.165569
0.170086
0.174598
0.179105
0.183605
0.1881
0.19259
0.197074
0.201552
0.206024
0.210491
0.214953
0.219409
0.22386
0.228306
0.232747
0.237183
0.241614
0.246041
0.250463
0.254881
0.259295
0.263705
0.268111
0.272515
0.276915
0.281312
0.285706
0.290099
0.294489
0.298878
0.303265
0.307652
0.312037
0.316423
0.320809
0.325196
0.329583
0.333972
0.338363
0.342756
0.347153
0.351553
0.355956
0.360365
0.364778
0.369197
0.373622
0.378054
0.382494
0.386942
0.391398
0.395864
0.400341
0.404828
0.409327
0.413839
0.418363
0.422902
0.427456
0.432026
0.436612
0.441215
0.445838
0.450479
0.455141
0.459824
0.46453
0.469259
0.474013
0.478792
0.483598
0.488432
0.493295
0.498188
0.503113
0.508071
0.513062
0.51809
0.523154
0.528256
0.533398
0.538581
0.543807
0.549078
0.554394
0.559758
0.565171
0.570636
0.576153
0.581725
0.587354
0.593041
0.598789
0.6046
0.610476
0.616419
0.622431
0.628515
0.634673
0.640908
0.647222
0.653618
0.660099
0.666667
0.673326
0.680078
0.686927
0.693876
0.700929
0.708088
0.715357
0.722741
0.730243
0.737867
0.745617
0.753499
0.761515
0.769671
0.777972
0.786423
0.795029
0.803796
0.81273
0.821836
0.83112
0.84059
0.850253
0.860114
0.870182
0.880465
0.89097
0.901707
0.912684
0.92391
0.935396
0.947151
0.959187
0.971515
0.984147
0.997096
1.01038
1.024
1.03798
1.05234
1.06708
1.08224
1.09782
1.11385
1.13034
1.14733
1.16482
1.18286
1.20145
1.22064
1.24045
1.26091
1.28206
1.30393
1.32657
1.35
1.37429
1.39946
1.42559
1.45272
1.4809
1.51022
1.54072
1.5725
1.60562
1.64018
1.67627
1.714
1.75348
1.79482
1.83817
1.88367
1.93149
1.98179
2.03478
2.09066
2.14967
2.21208
2.27817
2.34827
2.42273
2.50195
2.58637
2.67651
2.7729
2.87618
2.98705
3.1063
3.23483
3.37363
3.52384
3.68673
3.86372
4.05639
4.26653
4.49607
4.74712
5.02196
5.32293
5.65237
6.01249
6.40516
6.83159
7.29205
7.7854
8.30877
8.85724
9.42388
10
0
0.00506938
0.0101385
0.0152072
0.0202751
0.025342
0.0304078
0.0354721
0.0405347
0.0455954
0.050654
0.0557101
0.0607637
0.0658145
0.0708622
0.0759067
0.0809477
0.085985
0.0910185
0.0960479
0.101073
0.106094
0.11111
0.116122
0.121128
0.126129
0.131126
0.136117
0.141102
0.146082
0.151056
0.156024
0.160986
0.165943
0.170893
0.175837
0.180775
0.185707
0.190633
0.195552
0.200465
0.205372
0.210272
0.215166
0.220054
0.224936
0.229812
0.234682
0.239545
0.244403
0.249256
0.254102
0.258944
0.26378
0.268611
0.273437
0.278258
0.283075
0.287887
0.292695
0.2975
0.302301
0.307099
0.311894
0.316686
0.321476
0.326264
0.331051
0.335837
0.340621
0.345406
0.35019
0.354975
0.359761
0.364548
0.369338
0.37413
0.378925
0.383724
0.388526
0.393334
0.398147
0.402966
0.407792
0.412625
0.417466
0.422316
0.427175
0.432045
0.436925
0.441818
0.446723
0.451641
0.456574
0.461522
0.466486
0.471467
0.476465
0.481483
0.486521
0.49158
0.496661
0.501765
0.506893
0.512047
0.517227
0.522435
0.527671
0.532938
0.538237
0.543568
0.548934
0.554335
0.559773
0.565249
0.570766
0.576324
0.581925
0.587571
0.593263
0.599003
0.604793
0.610635
0.61653
0.622481
0.628489
0.634556
0.640685
0.646877
0.653136
0.659462
0.665859
0.672329
0.678874
0.685497
0.6922
0.698987
0.705859
0.712821
0.719874
0.727023
0.734269
0.741617
0.74907
0.756632
0.764305
0.772094
0.780004
0.788037
0.796198
0.804492
0.812922
0.821495
0.830214
0.839084
0.848112
0.857303
0.866661
0.876194
0.885908
0.895808
0.905902
0.916197
0.9267
0.937419
0.948362
0.959537
0.970954
0.982621
0.994547
1.00674
1.01922
1.03199
1.04506
1.05845
1.07217
1.08623
1.10065
1.11544
1.13062
1.1462
1.1622
1.17865
1.19555
1.21294
1.23083
1.24925
1.26822
1.28777
1.30792
1.32871
1.35018
1.37234
1.39524
1.41892
1.44342
1.46878
1.49505
1.52228
1.55053
1.57985
1.61031
1.64196
1.6749
1.70919
1.74492
1.78219
1.82108
1.86172
1.90421
1.94869
1.9953
2.04418
2.09551
2.14947
2.20626
2.26609
2.32921
2.39589
2.46642
2.54112
2.62037
2.70455
2.79411
2.88954
2.9914
3.1003
3.21691
3.34201
3.47643
3.62113
3.77716
3.94568
4.12797
4.32546
4.53969
4.77231
5.02506
5.29978
5.59827
5.92224
6.27322
6.65229
7.05998
7.49591
7.95863
8.44533
8.95176
9.47224
10
0
0.00549782
0.0109954
0.0164924
0.0219886
0.0274838
0.0329776
0.0384699
0.0439603
0.0494487
0.0549346
0.060418
0.0658985
0.071376
0.0768501
0.0823206
0.0877874
0.0932502
0.0987087
0.104163
0.109612
0.115057
0.120497
0.125931
0.13136
0.136783
0.142201
0.147613
0.153019
0.158419
0.163812
0.169199
0.17458
0.179954
0.185321
0.190682
0.196036
0.201383
0.206723
0.212057
0.217383
0.222703
0.228015
0.233321
0.23862
0.243912
0.249198
0.254477
0.259749
0.265015
0.270275
0.275528
0.280776
0.286017
0.291253
0.296484
0.301709
0.306929
0.312145
0.317356
0.322563
0.327765
0.332964
0.33816
0.343353
0.348544
0.353732
0.358918
0.364103
0.369287
0.37447
0.379654
0.384837
0.390022
0.395208
0.400396
0.405587
0.410781
0.415979
0.421181
0.426388
0.4316
0.436819
0.442045
0.447279
0.452522
0.457773
0.463035
0.468308
0.473592
0.478889
0.484199
0.489524
0.494864
0.500221
0.505594
0.510986
0.516397
0.521828
0.527281
0.532756
0.538255
0.543779
0.549329
0.554906
0.560511
0.566146
0.571813
0.577512
0.583244
0.589012
0.594817
0.60066
0.606543
0.612467
0.618434
0.624446
0.630504
0.63661
0.642767
0.648975
0.655236
0.661553
0.667928
0.674363
0.680859
0.687419
0.694046
0.700741
0.707507
0.714346
0.721261
0.728255
0.735329
0.742488
0.749733
0.757068
0.764495
0.772018
0.77964
0.787365
0.795195
0.803134
0.811187
0.819356
0.827646
0.836061
0.844604
0.853281
0.862096
0.871054
0.880159
0.889417
0.898832
0.908411
0.918159
0.928082
0.938186
0.948477
0.958962
0.969649
0.980544
0.991655
1.00299
1.01456
1.02636
1.03842
1.05074
1.06332
1.07619
1.08934
1.1028
1.11657
1.13067
1.1451
1.15989
1.17505
1.19059
1.20652
1.22288
1.23966
1.2569
1.27462
1.29282
1.31154
1.3308
1.35063
1.37104
1.39208
1.41376
1.43613
1.4592
1.48303
1.50765
1.53309
1.55941
1.58665
1.61485
1.64408
1.67439
1.70583
1.73849
1.77242
1.8077
1.84442
1.88267
1.92253
1.96412
2.00754
2.05292
2.1004
2.1501
2.2022
2.25686
2.31427
2.37463
2.43817
2.50513
2.57579
2.65043
2.72938
2.813
2.90169
2.99589
3.09608
3.20279
3.31661
3.43821
3.56829
3.70767
3.85721
4.01788
4.19074
4.37693
4.5777
4.79435
5.02829
5.28093
5.55371
5.84799
6.165
6.50571
6.87069
7.25997
7.67285
8.10774
8.56203
9.03206
9.51319
10
0
0.00592807
0.0118558
0.017783
0.0237094
0.0296346
0.0355583
0.0414803
0.0474003
0.0533181
0.0592332
0.0651456
0.0710548
0.0769607
0.082863
0.0887614
0.0946556
0.100546
0.106431
0.112311
0.118187
0.124057
0.129922
0.135781
0.141634
0.147481
0.153322
0.159156
0.164984
0.170805
0.17662
0.182427
0.188228
0.194021
0.199807
0.205585
0.211357
0.217121
0.222877
0.228626
0.234367
0.240101
0.245827
0.251545
0.257257
0.26296