# vtk DataFile Version 3.0
Scalar Field Data
ASCII
DATASET STRUCTURED_POINTS
DIMENSIONS 16 16 1
ORIGIN 0 0 0
SPACING 0.0625 0.0625 1
POINT_DATA 256
SCALARS scalars double
LOOKUP_TABLE default
0
0
0
0
0
0
0
0
0
0
0
0
0
0
0
0
0
-0.149174
-0.275765
-0.360642
-0.39106
-0.362624
-0.279988
-0.156194
-0.0107567
0.133213
0.252378
0.326511
0.34126
0.28986
0.173475
0
0
-0.275765
-0.509784
-0.666697
-0.722946
-0.670404
-0.517674
-0.288865
-0.0200461
0.246064
0.466328
0.603363
0.63064
0.53566
0.320581
0
0
-0.360642
-0.666697
-0.87193
-0.945533
-0.876883
-0.677226
-0.378088
-0.0266269
0.321301
0.609296
0.788483
0.824185
0.700072
0.418977
0
0
-0.39106
-0.722946
-0.945533
-1.02543
-0.95111
-0.734774
-0.410589
-0.0296749
0.347425
0.659582
0.85383
0.892598
0.75821
0.453764
0
0
-0.362624
-0.670404
-0.876883
-0.95111
-0.88241
-0.682081
-0.38179
-0.0289094
0.320461
0.609687
0.789707
0.825741
0.701456
0.419781
0
0
-0.279988
-0.517674
-0.677226
-0.734774
-0.682081
-0.527862
-0.296538
-0.0246348
0.244597
0.467509
0.606314
0.634256
0.538834
0.322417
0
0
-0.156194
-0.288865
-0.378088
-0.410589
-0.38179
-0.296538
-0.168406
-0.01769
0.131592
0.255226
0.332292
0.348047
0.295716
0.176839
0
0
-0.0107567
-0.0200461
-0.0266269
-0.0296749
-0.0289094
-0.0246348
-0.01769
-0.00931227
-0.000935096
0.00605086
0.0105363
0.0118936
0.010101
0.00576181
0
0
0.133213
0.246064
0.321301
0.347425
0.320461
0.244597
0.131592
-0.000935096
-0.132072
-0.240625
-0.308092
-0.321111
-0.272968
-0.163893
0
0
0.252378
0.466328
0.609296
0.659582
0.609687
0.467509
0.255226
0.00605086
-0.240625
-0.444928
-0.572125
-0.597247
-0.507926
-0.304905
0
0
0.326511
0.603363
0.788483
0.85383
0.789707
0.606314
0.332292
0.0105363
-0.308092
-0.572125
-0.736746
-0.769738
-0.655097
-0.393587
0
0
0.34126
0.63064
0.824185
0.892598
0.825741
0.634256
0.348047
0.0118936
-0.321111
-0.597247
-0.769738
-0.804915
-0.685879
-0.41286
0
0
0.28986
0.53566
0.700072
0.75821
0.701456
0.538834
0.295716
0.010101
-0.272968
-0.507926
-0.655097
-0.685879
-0.585696
-0.353885
0
0
0.173475
0.320581
0.418977
0.453764
0.419781
0.322417
0.176839
0.00576181
-0.163893
-0.304905
-0.393587
-0.41286
-0.353885
-0.215496
0
0
0
0
0
0
0
0
0
0
0
0
0
0
0
0
0
