# vtk DataFile Version 3.0
Scalar Field Data
ASCII
DATASET STRUCTURED_POINTS
DIMENSIONS 250 250 1
ORIGIN 0 0 0
SPACING 0.004 0.004 1
POINT_DATA 62500
SCALARS scalars double
LOOKUP_TABLE default
500
0
0
0
0
0
0
0
0
0
0
0
0
0
0
0
0
0
0
0
0
0
0
0
0
0
0
0
0
0
0
0
0
0
0
0
0
0
0
0
0
0
0
0
0
0
0
0
0
0
0
0
0
0
0
0
0
0
0
0
0
0
0
0
0
0
0
0
0
0
0
0
0
0
0
0
0
0
0
0
0
0
0
0
0
0
0
0
0
0
0
0
0
0
0
0
0
0
0
0
0
0
0
0
0
0
0
0
0
0
0
0
0
0
0
0
0
0
0
0
0
0
0
0
0
0
0
0
0
0
0
0
0
0
0
0
0
0
0
0
0
0
0
0
0
0
0
0
0
0
0
0
0
0
0
0
0
0
0
0
0
0
0
0
0
0
0
0
0
0
0
0
0
0
0
0
0
0
0
0
0
0
0
0
0
0
0
0
0
0
0
0
0
0
0
0
0
0
0
0
0
0
0
0
0
0
0
0
0
0
0
0
0
0
0
0
0
0
0
0
0
0
0
0
0
0
0
0
0
0
0
0
0
0
0
0
0
0
0
0
0
0
0
0
0
0
0
0
0
0
500
249.936
151.045
104.502
78.9914
63.2429
52.6313
45.0098
39.2707
34.7906
31.1932
28.2384
25.7659
23.6645
21.8551
20.2792
18.8934
17.6641
16.5655
15.577
14.6822
13.8679
13.1232
12.4393
11.8085
11.2246
10.6824
10.1774
9.70557
9.26373
8.84894
8.4587
8.09082
7.74336
7.41464
7.10314
6.80752
6.5266
6.2593
6.00468
5.76186
5.53007
5.30861
5.09684
4.89417
4.70008
4.51408
4.33572
4.1646
4.00034
3.84259
3.69104
3.54538
3.40534
3.27065
3.14109
3.01643
2.89645
2.78096
2.66978
2.56273
2.45965
2.36039
2.26479
2.17271
2.08404
1.99864
1.91639
1.83718
1.7609
1.68745
1.61674
1.54865
1.48311
1.42003
1.35933
1.30091
1.24471
1.19066
1.13867
1.08868
1.04062
0.994436
0.950053
0.907414
0.866461
0.827137
0.789386
0.753155
0.718393
0.685049
0.653075
0.622424
0.593048
0.564905
0.537951
0.512144
0.487442
0.463808
0.441202
0.419587
0.398928
0.379188
0.360335
0.342334
0.325154
0.308765
0.293135
0.278235
0.264038
0.250516
0.237641
0.225389
0.213735
0.202653
0.192122
0.182118
0.172619
0.163604
0.155053
0.146946
0.139263
0.131987
0.125099
0.118582
0.11242
0.106597
0.101097
0.0959047
0.0910067
0.0863889
0.082038
0.0779411
0.074086
0.0704608
0.0670542
0.0638553
0.0608535
0.0580389
0.0554016
0.0529325
0.0506227
0.0484637
0.0464472
0.0445655
0.0428111
0.0411769
0.0396559
0.0382416
0.0369278
0.0357085
0.034578
0.0335308
0.0325618
0.0316659
0.0308385
0.0300751
0.0293714
0.0287232
0.0281267
0.0275783
0.0270744
0.0266116
0.0261868
0.0257971
0.0254395
0.0251113
0.02481
0.0245332
0.0242786
0.0240439
0.0238272
0.0236265
0.02344
0.0232659
0.0231026
0.0229486
0.0228024
0.0226628
0.0225283
0.0223978
0.0222703
0.0221445
0.0220197
0.0218947
0.0217689
0.0216413
0.0215113
0.0213781
0.0212412
0.0210999
0.0209536
0.020802
0.0206445
0.0204808
0.0203103
0.0201329
0.0199482
0.0197559
0.0195557
0.0193475
0.0191311
0.0189064
0.0186731
0.0184311
0.0181805
0.0179211
0.0176529
0.0173758
0.0170899
0.0167952
0.0164917
0.0161795
0.0158586
0.0155291
0.0151911
0.0148447
0.0144901
0.0141273
0.0137565
0.013378
0.0129917
0.012598
0.0121971
0.011789
0.011374
0.0109524
0.0105243
0.01009
0.0096497
0.00920368
0.00875218
0.00829545
0.00783374
0.00736734
0.0068965
0.0064215
0.00594263
0.00546017
0.0049744
0.00448562
0.00399411
0.00350018
0.00300412
0.00250623
0.00200682
0.00150619
0.00100463
0.00050247
0
500
348.698
249.743
187.972
148.221
121.349
102.273
88.1375
77.2829
68.699
61.7443
55.995
51.1611
47.0379
43.4772
40.3692
37.631
35.1985
33.0217
31.0611
29.2849
27.6672
26.1869
24.8264
23.5711
22.4087
21.3289
20.3227
19.3824
18.5017
17.6746
16.8964
16.1626
15.4694
14.8134
14.1918
13.6018
13.041
12.5074
11.999
11.5142
11.0513
10.6091
10.1861
9.78131
9.39362
9.02206
8.66576
8.3239
7.99573
7.68056
7.37775
7.0867
6.80687
6.53775
6.27884
6.02972
5.78995
5.55915
5.33696
5.12301
4.91699
4.71859
4.52752
4.34349
4.16625
3.99555
3.83115
3.67283
3.52036
3.37354
3.23218
3.09609
2.96508
2.83898
2.71762
2.60085
2.48851
2.38044
2.27651
2.17658
2.08051
1.98818
1.89945
1.81421
1.73233
1.65372
1.57825
1.50581
1.43632
1.36966
1.30573
1.24445
1.18572
1.12946
1.07557
1.02397
0.974586
0.927334
0.882138
0.838923
0.797618
0.758152
0.720458
0.684468
0.65012
0.617351
0.586101
0.556312
0.527926
0.50089
0.475149
0.450653
0.427351
0.405195
0.384138
0.364136
0.345144
0.327119
0.310022
0.293812
0.278452
0.263903
0.250131
0.237102
0.224781
0.213138
0.20214
0.191759
0.181966
0.172733
0.164033
0.155842
0.148133
0.140885
0.134074
0.127677
0.121675
0.116048
0.110774
0.105837
0.101219
0.096902
0.0928701
0.0891076
0.0855997
0.0823319
0.0792907
0.0764628
0.0738358
0.0713978
0.0691373
0.0670434
0.0651058
0.0633145
0.0616601
0.0601336
0.0587264
0.0574303
0.0562376
0.055141
0.0541333
0.053208
0.0523586
0.0515793
0.0508642
0.050208
0.0496055
0.049052
0.0485428
0.0480736
0.0476402
0.0472389
0.0468659
0.0465177
0.0461912
0.0458833
0.045591
0.0453117
0.0450428
0.044782
0.0445269
0.0442755
0.0440258
0.0437759
0.0435243
0.0432692
0.0430092
0.042743
0.0424692
0.0421866
0.0418942
0.0415911
0.0412762
0.0409487
0.040608
0.0402532
0.0398839
0.0394994
0.0390992
0.038683
0.0382503
0.0378009
0.0373344
0.0368507
0.0363496
0.0358309
0.0352947
0.0347407
0.0341691
0.0335799
0.0329731
0.0323488
0.0317072
0.0310484
0.0303726
0.0296801
0.028971
0.0282457
0.0275044
0.0267475
0.0259753
0.0251881
0.0243864
0.0235705
0.0227408
0.0218978
0.0210419
0.0201736
0.0192933
0.0184016
0.0174988
0.0165857
0.0156625
0.01473
0.0137886
0.012839
0.0118815
0.0109169
0.00994566
0.0089684
0.0079857
0.00699815
0.00600634
0.00501088
0.00401237
0.00301142
0.00200863
0.00100462
0
500
395.113
311.258
249.423
204.57
171.661
146.973
127.985
113.025
100.979
91.0911
82.8375
75.8468
69.85
64.648
60.0911
56.0644
52.4787
49.2635
46.3627
43.7309
41.3311
39.1327
37.1104
35.243
33.5126
31.9041
30.4044
29.0023
27.6884
26.4541
25.2922
24.1964
23.1609
22.1808
21.2517
20.3696
19.5312
18.7332
17.9728
17.2475
16.555
15.8932
15.2603
14.6544
14.0741
13.5179
12.9845
12.4726
11.9813
11.5093
11.0558
10.6199
10.2008
9.79773
9.40992
9.03674
8.67757
8.33181
7.99892
7.67839
7.36972
7.07245
6.78615
6.51041
6.24482
5.98903
5.74267
5.50541
5.27692
5.0569
4.84505
4.64108
4.44474
4.25575
4.07386
3.89885
3.73046
3.56849
3.41272
3.26293
3.11893
2.98053
2.84753
2.71976
2.59703
2.47919
2.36606
2.25748
2.1533
2.05338
1.95755
1.86569
1.77765
1.6933
1.61252
1.53517
1.46113
1.3903
1.32254
1.25776
1.19583
1.13667
1.08016
1.0262
0.974709
0.925582
0.878732
0.834072
0.791516
0.750982
0.712391
0.675665
0.64073
0.607513
0.575944
0.545955
0.517481
0.490458
0.464824
0.440521
0.417491
0.395679
0.375031
0.355495
0.337023
0.319566
0.303077
0.287513
0.27283
0.258986
0.245943
0.233661
0.222104
0.211236
0.201023
0.191433
0.182434
0.173996
0.166089
0.158687
0.151762
0.14529
0.139244
0.133603
0.128343
0.123443
0.118883
0.114643
0.110704
0.107049
0.103659
0.10052
0.0976143
0.0949284
0.0924477
0.0901587
0.0880487
0.0861053
0.0843169
0.0826725
0.0811615
0.0797739
0.0785003
0.0773317
0.0762594
0.0752754
0.074372
0.073542
0.0727784
0.0720748
0.0714249
0.0708231
0.0702637
0.0697417
0.069252
0.0687903
0.068352
0.0679331
0.0675299
0.0671387
0.0667562
0.0663792
0.0660048
0.0656302
0.0652529
0.0648704
0.0644806
0.0640813
0.0636708
0.0632471
0.0628088
0.0623542
0.0618821
0.0613912
0.0608803
0.0603484
0.0597946
0.0592181
0.0586182
0.0579942
0.0573455
0.0566716
0.0559723
0.0552471
0.0544958
0.0537182
0.0529142
0.0520838
0.0512268
0.0503434
0.0494336
0.0484977
0.0475358
0.0465481
0.045535
0.0444967
0.0434337
0.0423463
0.041235
0.0401002
0.0389425
0.0377624
0.0365604
0.0353372
0.0340933
0.0328295
0.0315463
0.0302445
0.0289248
0.0275878
0.0262345
0.0248654
0.0234815
0.0220834
0.0206721
0.0192483
0.0178129
0.0163667
0.0149106
0.0134455
0.0119722
0.0104917
0.00900477
0.00751237
0.00601539
0.00451475
0.00301137
0.00150614
0
500
420.496
350.754
293.893
248.976
213.753
185.976
163.806
145.855
131.102
118.805
108.419
99.5405
91.8691
85.1758
79.2848
74.0592
69.3908
65.1936
61.3981
57.9479
54.7965
51.9055
49.2427
46.7812
44.4981
42.3739
40.392
38.5379
36.7992
35.1651
33.6261
32.1738
30.801
29.5013
28.2687
27.0982
25.9853
24.9258
23.916
22.9526
22.0325
21.1532
20.312
19.5066
18.7352
17.9956
17.2863
16.6056
15.9521
15.3243
14.721
14.1411
13.5835
13.0471
12.531
12.0344
11.5564
11.0962
10.6531
10.2264
9.81554
9.41981
9.03866
8.67154
8.31794
7.97736
7.64934
7.33341
7.02916
6.73617
6.45405
6.18243
5.92095
5.66926
5.42702
5.19393
4.96967
4.75394
4.54647
4.34696
4.15516
3.97081
3.79365
3.62345
3.45998
3.303
3.1523
3.00766
2.86889
2.73577
2.60811
2.48574
2.36845
2.25609
2.14846
2.04542
1.94679
1.85242
1.76215
1.67584
1.59334
1.51451
1.43922
1.36734
1.29873
1.23328
1.17086
1.11136
1.05466
1.00065
0.949234
0.900301
0.853754
0.809496
0.767433
0.727476
0.689536
0.65353
0.619375
0.586993
0.556307
0.527243
0.499731
0.473701
0.449087
0.425826
0.403856
0.383116
0.363551
0.345105
0.327724
0.311359
0.295959
0.281477
0.267869
0.255089
0.243098
0.231854
0.221318
0.211454
0.202227
0.193601
0.185545
0.178028
0.171019
0.16449
0.158413
0.152763
0.147514
0.142642
0.138125
0.133941
0.13007
0.12649
0.123184
0.120134
0.117322
0.114732
0.112349
0.110157
0.108144
0.106294
0.104597
0.103039
0.10161
0.100299
0.099095
0.0979887
0.096971
0.0960333
0.0951671
0.094365
0.0936195
0.0929237
0.0922711
0.0916556
0.0910715
0.0905132
0.0899759
0.0894545
0.0889447
0.0884423
0.0879433
0.087444
0.0869412
0.0864315
0.085912
0.08538
0.0848329
0.0842684
0.0836843
0.0830786
0.0824495
0.0817953
0.0811145
0.0804059
0.079668
0.0788999
0.0781005
0.077269
0.0764047
0.0755069
0.0745751
0.0736089
0.0726078
0.0715718
0.0705006
0.0693941
0.0682523
0.0670752
0.0658631
0.0646161
0.0633345
0.0620185
0.0606687
0.0592853
0.057869
0.0564202
0.0549395
0.0534276
0.0518851
0.0503128
0.0487113
0.0470816
0.0454243
0.0437404
0.0420308
0.0402963
0.0385379
0.0367567
0.0349535
0.0331295
0.0312856
0.0294229
0.0275425
0.0256455
0.023733
0.0218062
0.0198662
0.0179142
0.0159512
0.0139786
0.0119975
0.0100091
0.00801462
0.00601524
0.0040122
0.00200671
0
500
436.117
377.37
326.418
283.687
248.401
219.371
195.409
175.487
158.772
144.61
132.494
122.03
112.913
104.904
97.8163
91.4998
85.835
80.7253
76.0919
71.8698
68.0055
64.4542
61.1781
58.1454
55.3292
52.7062
50.2565
47.9629
45.8105
43.7861
41.8784
40.0772
38.3737
36.7601
35.2293
33.775
32.3918
31.0745
29.8187
28.6202
27.4755
26.381
25.3338
24.3312
23.3705
22.4494
21.5658
20.7177
19.9033
19.121
18.3691
17.6463
16.9511
16.2824
15.6389
15.0196
14.4235
13.8496
13.2969
12.7647
12.2522
11.7585
11.283
10.825
10.3838
9.95887
9.54955
9.15532
8.77565
8.41001
8.05793
7.71894
7.39258
7.07844
6.7761
6.48515
6.20522
5.93594
5.67694
5.4279
5.18846
4.95832
4.73716
4.52468
4.32059
4.1246
3.93645
3.75587
3.5826
3.4164
3.25701
3.10421
2.95777
2.81746
2.68308
2.55441
2.43126
2.31341
2.2007
2.09292
1.9899
1.89147
1.79745
1.70768
1.62201
1.54027
1.46232
1.38801
1.3172
1.24976
1.18555
1.12444
1.06631
1.01103
0.958502
0.9086
0.861218
0.816249
0.773593
0.73315
0.694826
0.658527
0.624166
0.591656
0.560915
0.531862
0.504422
0.478519
0.454082
0.431043
0.409335
0.388895
0.36966
0.351572
0.334575
0.318614
0.303636
0.289591
0.276432
0.264112
0.252586
0.241812
0.23175
0.22236
0.213605
0.205449
0.197859
0.190801
0.184244
0.178159
0.172517
0.167291
0.162454
0.157983
0.153853
0.150043
0.14653
0.143295
0.140317
0.13758
0.135064
0.132754
0.130634
0.128688
0.126903
0.125264
0.12376
0.122378
0.121106
0.119935
0.118853
0.117851
0.116919
0.11605
0.115234
0.114466
0.113736
0.113038
0.112367
0.111716
0.111079
0.110451
0.109828
0.109204
0.108576
0.107939
0.10729
0.106626
0.105942
0.105237
0.104508
0.103751
0.102965
0.102148
0.101298
0.100413
0.0994915
0.0985322
0.0975339
0.0964954
0.095416
0.0942948
0.0931311
0.0919244
0.0906743
0.0893804
0.0880426
0.0866607
0.0852348
0.0837649
0.0822512
0.0806939
0.0790933
0.0774499
0.0757642
0.0740366
0.0722679
0.0704586
0.0686095
0.0667213
0.064795
0.0628315
0.0608315
0.0587962
0.0567266
0.0546238
0.0524887
0.0503227
0.0481268
0.0459024
0.0436505
0.0413726
0.0390699
0.0367438
0.0343955
0.0320265
0.0296382
0.027232
0.0248093
0.0223715
0.0199202
0.0174567
0.0149827
0.0124995
0.0100088
0.00751193
0.0050105
0.00250601
0
500
446.601
396.191
350.723
310.955
276.794
247.701
222.975
201.914
183.891
168.373
154.919
143.175
132.851
123.715
115.58
108.293
101.728
95.7852
90.3788
85.4388
80.9066
76.7327
72.8753
69.2988
65.9728
62.8711
59.971
57.2531
54.7
52.297
50.0307
47.8896
45.8634
43.9431
42.1203
40.388
38.7396
37.1691
35.6715
34.2417
32.8756
31.5692
30.3189
29.1215
27.9739
26.8734
25.8175
24.8039
23.8304
22.8951
21.996
21.1316
20.3001
19.5002
18.7304
17.9894
17.2761
16.5893
15.9279
15.291
14.6775
14.0865
13.5173
12.9689
12.4407
11.9319
11.4418
10.9697
10.515
10.0771
9.65543
9.24941
8.85852
8.48224
8.12008
7.77156
7.43622
7.11363
6.80335
6.50499
6.21813
5.94239
5.67741
5.42283
5.17829
4.94346
4.71801
4.50162
4.294
4.09483
3.90383
3.72072
3.54523
3.37709
3.21604
3.06184
2.91424
2.77301
2.63792
2.50875
2.38528
2.26731
2.15462
2.04703
1.94434
1.84638
1.75294
1.66388
1.57901
1.49817
1.4212
1.34795
1.27827
1.21202
1.14905
1.08923
1.03243
0.978528
0.927395
0.878915
0.832974
0.789461
0.74827
0.709299
0.672447
0.637619
0.604724
0.573672
0.544377
0.516758
0.490734
0.466229
0.443169
0.421485
0.401108
0.381973
0.364016
0.347179
0.331402
0.316631
0.302813
0.289896
0.277833
0.266575
0.256078
0.2463
0.2372
0.228737
0.220876
0.21358
0.206816
0.200549
0.19475
0.189389
0.184438
0.179869
0.175657
0.171777
0.168207
0.164925
0.161908
0.159138
0.156595
0.154262
0.152121
0.150156
0.148353
0.146695
0.14517
0.143765
0.142468
0.141266
0.140149
0.139106
0.138128
0.137206
0.136331
0.135495
0.13469
0.133908
0.133145
0.132392
0.131645
0.130897
0.130144
0.12938
0.128602
0.127805
0.126986
0.126141
0.125266
0.124359
0.123417
0.122438
0.121419
0.120358
0.119253
0.118103
0.116906
0.115661
0.114367
0.113023
0.111629
0.110182
0.108684
0.107133
0.105529
0.103873
0.102164
0.100402
0.0985874
0.0967208
0.0948023
0.0928325
0.090812
0.0887413
0.0866212
0.0844525
0.0822361
0.079973
0.0776641
0.0753105
0.0729134
0.0704739
0.0679932
0.0654726
0.0629136
0.0603173
0.0576854
0.0550191
0.05232
0.0495897
0.0468296
0.0440415
0.0412268
0.0383873
0.0355247
0.0326405
0.0297366
0.0268147
0.0238765
0.0209238
0.0179584
0.0149821
0.0119966
0.00900387
0.00600563
0.00300373
0
500
454.095
410.072
369.33
332.616
300.121
271.666
246.876
225.306
206.508
190.073
175.64
162.903
151.605
141.53
132.5
124.367
117.005
110.314
104.205
98.6058
93.4552
88.7008
84.2979
80.2082
76.3988
72.8412
69.5107
66.3856
63.4472
60.6787
58.0657
55.5951
53.2555
51.0367
48.9295
46.9257
45.018
43.1998
41.4651
39.8085
38.2251
36.7104
35.2603
33.8711
32.5395
31.2622
30.0364
28.8594
27.7287
26.6422
25.5977
24.5932
23.6269
22.6972
21.8023
20.9409
20.1115
19.3128
18.5436
17.8028
17.0891
16.4017
15.7394
15.1014
14.4868
13.8947
13.3244
12.775
12.2458
11.7361
11.2453
10.7727
10.3177
9.87961
9.45798
9.05222
8.66179
8.28618
7.92491
7.57748
7.24345
6.92236
6.61378
6.3173
6.03251
5.75902
5.49645
5.24444
5.00261
4.77063
4.54817
4.33489
4.13047
3.93462
3.74702
3.5674
3.39546
3.23094
3.07357
2.92309
2.77926
2.64182
2.51054
2.3852
2.26556
2.15142
2.04257
1.9388
1.83992
1.74573
1.65606
1.57071
1.48953
1.41233
1.33897
1.26927
1.20309
1.14028
1.0807
1.02421
0.970679
0.919977
0.871979
0.826568
0.783626
0.743043
0.70471
0.668526
0.634389
0.602204
0.571877
0.543321
0.51645
0.49118
0.467434
0.445134
0.424208
0.404586
0.386201
0.368987
0.352883
0.33783
0.32377
0.31065
0.298417
0.287021
0.276415
0.266553
0.257391
0.248887
0.241003
0.233699
0.226941
0.220692
0.214921
0.209595
0.204686
0.200164
0.196003
0.192176
0.18866
0.185431
0.182467
0.179747
0.177252
0.174961
0.172859
0.170926
0.169149
0.167511
0.165998
0.164597
0.163295
0.162079
0.160939
0.159864
0.158844
0.157869
0.15693
0.15602
0.155129
0.154252
0.15338
0.152509
0.151631
0.150741
0.149834
0.148906
0.147951
0.146966
0.145947
0.14489
0.143792
0.142651
0.141463
0.140227
0.13894
0.1376
0.136205
0.134755
0.133247
0.131681
0.130056
0.128371
0.126625
0.124818
0.12295
0.12102
0.119028
0.116976
0.114862
0.112687
0.110452
0.108157
0.105803
0.10339
0.10092
0.0983933
0.095811
0.0931743
0.0904842
0.0877421
0.0849493
0.082107
0.0792169
0.0762803
0.0732987
0.0702739
0.0672075
0.0641011
0.0609565
0.0577754
0.0545598
0.0513114
0.0480321
0.0447239
0.0413887
0.0380285
0.0346452
0.031241
0.0278178
0.0243777
0.0209228
0.0174552
0.0139769
0.0104901
0.00699698
0.00349955
0
500
459.707
420.673
383.91
350.061
319.41
291.967
267.561
245.928
226.766
209.773
194.668
181.197
169.14
158.305
148.53
139.674
131.619
124.265
117.527
111.331
105.615
100.325
95.4148
90.8451
86.5811
82.5925
78.8533
75.3402
72.0331
68.9142
65.9675
63.1791
60.5365
58.0284
55.6451
53.3773
51.2172
49.1573
47.1911
45.3126
43.5165
41.7976
40.1515
38.5741
37.0615
35.6103
34.2172
32.8794
31.5939
30.3583
29.1703
28.0276
26.9282
25.8701
24.8516
23.8711
22.9269
22.0175
21.1416
20.2979
19.4851
18.7021
17.9477
17.2208
16.5205
15.8459
15.1959
14.5698
13.9667
13.3858
12.8264
12.2876
11.7689
11.2695
10.7888
10.3262
9.88106
9.45278
9.04082
8.64465
8.26373
7.89755
7.54564
7.20751
6.8827
6.57078
6.27129
5.98384
5.708
5.44339
5.18962
4.94632
4.71314
4.48971
4.2757
4.07078
3.87463
3.68693
3.50739
3.3357
3.1716
3.01478
2.865
2.72198
2.58548
2.45525
2.33104
2.21264
2.0998
1.99233
1.89
1.79261
1.69997
1.61188
1.52815
1.44862
1.3731
1.30142
1.23343
1.16896
1.10787
1.05001
0.995229
0.943402
0.894394
0.848078
0.804329
0.763032
0.724071
0.687337
0.652725
0.620133
0.589463
0.560622
0.533518
0.508066
0.484182
0.461785
0.4408
0.421152
0.40277
0.385588
0.36954
0.354563
0.3406
0.327591
0.315484
0.304226
0.293768
0.284061
0.275061
0.266723
0.259008
0.251874
0.245286
0.239206
0.233601
0.228439
0.223688
0.21932
0.215305
0.211619
0.208235
0.205129
0.20228
0.199664
0.197263
0.195057
0.193028
0.191157
0.18943
0.18783
0.186343
0.184955
0.183653
0.182425
0.18126
0.180147
0.179075
0.178035
0.177019
0.176017
0.175022
0.174027
0.173025
0.172009
0.170974
0.169914
0.168824
0.1677
0.166536
0.16533
0.164077
0.162775
0.161419
0.160008
0.158539
0.15701
0.155419
0.153764
0.152044
0.150257
0.148402
0.146479
0.144487
0.142425
0.140293
0.138091
0.135818
0.133476
0.131064
0.128582
0.126031
0.123413
0.120726
0.117974
0.115155
0.112272
0.109325
0.106317
0.103247
0.100118
0.0969316
0.0936884
0.0903906
0.0870397
0.0836377
0.0801862
0.0766872
0.0731426
0.0695545
0.0659247
0.0622555
0.0585489
0.0548071
0.0510323
0.0472266
0.0433924
0.039532
0.0356476
0.0317415
0.0278162
0.023874
0.0199172
0.0159484
0.0119698
0.00798391
0.00399317
0
500
464.061
429.004
395.577
364.308
335.494
309.233
285.477
264.083
244.858
227.59
212.066
198.083
185.458
174.027
163.645
154.185
145.538
137.609
130.314
123.584
117.356
111.577
106.2
101.185
96.4968
92.1039
87.9792
84.0987
80.441
76.9876
73.7215
70.628
67.6937
64.9067
62.2562
59.7328
57.3276
55.0328
52.8412
50.7464
48.7425
46.8241
44.9863
43.2245
41.5346
39.9127
38.3554
36.8594
35.4217
34.0394
32.71
31.4311
30.2005
29.0159
27.8754
26.7773
25.7197
24.701
23.7196
22.7742
21.8633
20.9857
20.14
19.3252
18.5401
17.7837
17.0549
16.3528
15.6764
15.0249
14.3974
13.7931
13.2112
12.651
12.1117
11.5926
11.0932
10.6126
10.1503
9.70576
9.27828
8.86734
8.47238
8.09288
7.72831
7.3782
7.04203
6.71936
6.40973
6.11268
5.8278
5.55467
5.29287
5.04203
4.80176
4.57169
4.35146
4.14071
3.93912
3.74635
3.56207
3.38599
3.2178
3.0572
2.90392
2.75767
2.61819
2.48523
2.35851
2.23782
2.1229
2.01352
1.90948
1.81055
1.71652
1.62719
1.54237
1.46186
1.3855
1.31309
1.24447
1.17948
1.11796
1.05974
1.0047
0.952671
0.90353
0.857142
0.813379
0.772116
0.733237
0.696626
0.662174
0.629775
0.599329
0.570737
0.543906
0.518746
0.495171
0.473099
0.452449
0.433146
0.415117
0.398292
0.382604
0.36799
0.354388
0.341739
0.329989
0.319083
0.308971
0.299603
0.290934
0.282919
0.275516
0.268685
0.262388
0.256587
0.251248
0.246339
0.241828
0.237686
0.233883
0.230393
0.22719
0.224252
0.221553
0.219074
0.216793
0.21469
0.212749
0.210951
0.209279
0.207719
0.206256
0.204876
0.203567
0.202315
0.201111
0.199942
0.1988
0.197674
0.196556
0.195438
0.194312
0.193171
0.192008
0.190817
0.189593
0.188329
0.187022
0.185667
0.18426
0.182797
0.181275
0.17969
0.17804
0.176323
0.174536
0.172677
0.170745
0.168738
0.166655
0.164495
0.162258
0.159942
0.157548
0.155075
0.152523
0.149892
0.147183
0.144396
0.141532
0.138591
0.135574
0.132483
0.129318
0.12608
0.122771
0.119392
0.115945
0.112432
0.108853
0.105211
0.101507
0.0977443
0.0939239
0.0900479
0.0861186
0.0821381
0.0781086
0.0740325
0.069912
0.0657495
0.0615475
0.0573084
0.0530348
0.048729
0.0443938
0.0400316
0.0356452
0.0312371
0.0268101
0.0223667
0.0179097
0.0134419
0.0089658
0.00448426
0
500
467.532
435.707
405.087
376.101
349.026
323.997
301.033
280.072
260.999
243.669
227.926
213.616
200.588
188.706
177.845
167.892
158.747
150.325
142.546
135.343
128.657
122.436
116.633
111.209
106.127
101.358
96.8717
92.6452
88.6562
84.8852
81.3148
77.9297
74.7159
71.6607
68.7531
65.9828
63.3406
60.8181
58.4078
56.1028
53.8967
51.7838
49.7588
47.8168
45.9534
44.1645
42.4462
40.7952
39.208
37.6816
36.2134
34.8005
33.4407
32.1315
30.8709
29.6568
28.4873
27.3607
26.2753
25.2295
24.2217
23.2506
22.3148
21.413
20.5441
19.7067
18.8999
18.1225
17.3736
16.6522
15.9573
15.288
14.6435
14.023
13.4256
12.8506
12.2973
11.7649
11.2527
10.7601
10.2864
9.83107
9.39339
8.97283
8.5688
8.18077
7.8082
7.45056
7.10735
6.7781
6.46232
6.15954
5.86934
5.59127
5.3249
5.06984
4.82567
4.59202
4.36852
4.15478
3.95047
3.75524
3.56875
3.39067
3.22071
3.05854
2.90387
2.75642
2.61591
2.48206
2.35462
2.23333
2.11795
2.00823
1.90395
1.80488
1.71081
1.62153
1.53683
1.45652
1.38042
1.30834
1.2401
1.17553
1.11447
1.05677
1.00226
0.95081
0.902267
0.856497
0.813371
0.77276
0.734544
0.698605
0.664831
0.633114
0.603351
0.57544
0.549288
0.524802
0.501894
0.480479
0.460478
0.441813
0.424408
0.408195
0.393104
0.379072
0.366035
0.353935
0.342715
0.332322
0.322703
0.31381
0.305596
0.298016
0.291028
0.284592
0.278668
0.273221
0.268215
0.263617
0.259397
0.255524
0.25197
0.248708
0.245714
0.242962
0.24043
0.238097
0.235942
0.233946
0.232091
0.230359
0.228735
0.227204
0.22575
0.224361
0.223024
0.221727
0.22046
0.21921
0.21797
0.216729
0.215479
0.214213
0.212923
0.211602
0.210243
0.208842
0.207392
0.205889
0.204328
0.202706
0.201017
0.199259
0.19743
0.195525
0.193543
0.191481
0.189338
0.187113
0.184803
0.182408
0.179927
0.177359
0.174703
0.171961
0.169131
0.166214
0.16321
0.16012
0.156943
0.153682
0.150337
0.146909
0.143399
0.139809
0.136139
0.132393
0.12857
0.124674
0.120705
0.116667
0.11256
0.108387
0.104151
0.0998528
0.0954956
0.0910817
0.0866134
0.0820935
0.0775243
0.0729086
0.0682491
0.0635484
0.0588094
0.0540348
0.0492276
0.0443905
0.0395264
0.0346384
0.0297293
0.0248021
0.0198598
0.0149055
0.00994203
0.00497253
0
500
470.361
441.205
412.964
385.986
360.516
336.699
314.59
294.178
275.4
258.164
242.36
227.871
214.579
202.372
191.143
180.797
171.244
162.405
154.21
146.595
139.503
132.886
126.698
120.9
115.458
110.339
105.517
100.967
96.6658
92.5949
88.7361
85.0736
81.5929
78.2812
75.1267
72.119
69.2483
66.5059
63.8839
61.3751
58.9727
56.6707
54.4634
52.3459
50.3132
48.3611
46.4855
44.6826
42.949
41.2814
39.6768
38.1325
36.6457
35.214
33.8352
32.507
31.2274
29.9945
28.8065
27.6617
26.5583
25.495
24.4702
23.4825
22.5307
21.6134
20.7295
19.8777
19.0571
18.2664
17.5048
16.7713
16.0648
15.3846
14.7297
14.0993
13.4926
12.9088
12.3472
11.807
11.2875
10.7881
10.3081
9.84681
9.40365
8.97801
8.5693
8.17697
7.80046
7.43924
7.09279
6.7606
6.44219
6.13708
5.84481
5.56493
5.29701
5.04061
4.79534
4.56079
4.33657
4.12231
3.91764
3.72221
3.53567
3.35768
3.18792
3.02608
2.87186
2.72494
2.58506
2.45192
2.32527
2.20483
2.09036
1.98161
1.87834
1.78033
1.68735
1.59919
1.51564
1.43651
1.36159
1.29071
1.22367
1.16032
1.10048
1.04399
0.990691
0.940439
0.893088
0.848499
0.806538
0.767078
0.729994
0.695168
0.662486
0.63184
0.603123
0.576235
0.55108
0.527565
0.505601
0.485104
0.465992
0.448187
0.431615
0.416204
0.401887
0.388599
0.376277
0.364862
0.354298
0.344531
0.335509
0.327184
0.319508
0.312439
0.305932
0.299948
0.294449
0.289399
0.284763
0.280509
0.276604
0.273021
0.269731
0.266708
0.263926
0.261362
0.258995
0.256802
0.254763
0.252861
0.251076
0.249394
0.247797
0.246271
0.244802
0.243377
0.241984
0.240612
0.239249
0.237886
0.236514
0.235123
0.233706
0.232255
0.230764
0.229225
0.227633
0.225983
0.224269
0.222488
0.220634
0.218704
0.216696
0.214605
0.212429
0.210166
0.207814
0.205371
0.202835
0.200206
0.197483
0.194664
0.19175
0.188739
0.185633
0.182431
0.179134
0.175742
0.172256
0.168676
0.165005
0.161242
0.15739
0.153449
0.149422
0.145309
0.141114
0.136837
0.132482
0.128049
0.123542
0.118962
0.114312
0.109595
0.104812
0.0999678
0.0950636
0.0901027
0.0850877
0.0800217
0.0749076
0.0697483
0.0645469
0.0593066
0.0540303
0.0487212
0.0433827
0.0380177
0.0326297
0.0272218
0.0217974
0.0163597
0.010912
0.00545765
0
500
472.709
445.789
419.58
394.365
370.357
347.695
326.455
306.653
288.264
271.233
255.486
240.936
227.493
215.066
203.568
192.917
183.035
173.852
165.304
157.333
149.887
142.918
136.384
130.248
124.476
119.037
113.904
109.052
104.459
100.107
95.9756
92.0502
88.3159
84.7596
81.3691
78.1337
75.0435
72.0894
69.2632
66.5573
63.9648
61.4794
59.0952
56.8069
54.6094
52.4982
50.469
48.5178
46.641
44.8352
43.0972
41.4239
39.8127
38.2608
36.7658
35.3255
33.9377
32.6002
31.3112
30.0688
28.8714
27.7171
26.6046
25.5322
24.4986
23.5024
22.5423
21.6171
20.7255
19.8666
19.039
18.2419
17.4742
16.7349
16.0231
15.3379
14.6783
14.0437
13.4331
12.8458
12.281
11.7379
11.2159
10.7143
10.2323
9.76942
9.3249
8.89818
8.48864
8.09572
7.71885
7.35749
7.0111
6.67917
6.3612
6.05669
5.76519
5.48623
5.21935
4.96414
4.72017
4.48702
4.2643
4.05163
3.84863
3.65493
3.47019
3.29406
3.12622
2.96633
2.81408
2.66918
2.53133
2.40024
2.27564
2.15727
2.04487
1.93819
1.83698
1.74102
1.65007
1.56393
1.48238
1.40521
1.33224
1.26327
1.19813
1.13663
1.07861
1.0239
0.972349
0.923804
0.878121
0.835159
0.794784
0.756867
0.721284
0.687916
0.656649
0.627374
0.599984
0.574379
0.550464
0.528145
0.507333
0.487945
0.469899
0.453118
0.437527
0.423056
0.409637
0.397206
0.385702
0.375064
0.365239
0.356172
0.347812
0.340112
0.333025
0.326507
0.320518
0.315017
0.309967
0.305332
0.301079
0.297175
0.293591
0.290297
0.287267
0.284474
0.281894
0.279505
0.277284
0.275211
0.273267
0.271433
0.269693
0.268031
0.266431
0.264878
0.263361
0.261866
0.260382
0.258897
0.257403
0.255888
0.254345
0.252765
0.251141
0.249466
0.247733
0.245936
0.244071
0.242131
0.240113
0.238013
0.235826
0.23355
0.231182
0.228719
0.226159
0.2235
0.22074
0.217879
0.214915
0.211847
0.208675
0.205399
0.202019
0.198534
0.194946
0.191254
0.18746
0.183564
0.179569
0.175474
0.171281
0.166993
0.16261
0.158135
0.153569
0.148915
0.144175
0.139351
0.134446
0.129461
0.124401
0.119267
0.114063
0.108791
0.103454
0.098055
0.0925975
0.0870843
0.0815188
0.0759042
0.0702437
0.0645408
0.0587989
0.0530213
0.0472115
0.0413731
0.0355095
0.0296244
0.0237212
0.0178035
0.011875
0.00593933
0
500
474.686
449.664
425.204
401.539
378.853
357.275
336.885
317.719
299.775
283.025
267.421
252.901
239.398
226.839
215.155
204.276
194.136
184.674
175.832
167.558
159.804
152.527
145.686
139.246
133.175
127.443
122.023
116.892
112.028
107.412
103.025
98.8518
94.8774
91.0886
87.4733
84.0204
80.7199
77.5625
74.5397
71.6439
68.8679
66.205
63.6494
61.1954
58.8377
56.5718
54.393
52.2973
50.2808
48.3399
46.4714
44.672
42.9388
41.2691
39.6603
38.11
36.6158
35.1756
33.7874
32.4491
31.159
29.9153
28.7163
27.5604
26.4462
25.3722
24.337
23.3394
22.3779
21.4514
20.5588
19.6989
18.8706
18.073
17.3049
16.5655
15.8537
15.1688
14.5097
13.8758
13.2661
12.6799
12.1163
11.5747
11.0544
10.5545
10.0745
9.61374
9.17149
8.74716
8.34015
7.94987
7.57574
7.21722
6.87377
6.54485
6.22997
5.92862
5.64033
5.36462
5.10104
4.84916
4.60854
4.37876
4.15943
3.95015
3.75054
3.56023
3.37886
3.20609
3.04157
2.88499
2.73602
2.59436
2.45972
2.3318
2.21032
2.09503
1.98565
1.88193
1.78364
1.69054
1.60239
1.51899
1.44012
1.36558
1.29516
1.22869
1.16597
1.10684
1.05111
0.99864
0.949258
0.902816
0.859171
0.818182
0.779715
0.743643
0.709841
0.678191
0.64858
0.620899
0.595043
0.570913
0.548412
0.52745
0.507938
0.489794
0.472936
0.457289
0.44278
0.429338
0.416897
0.405395
0.39477
0.384965
0.375924
0.367597
0.359932
0.352883
0.346406
0.340456
0.334994
0.32998
0.32538
0.321158
0.31728
0.313717
0.310439
0.307417
0.304627
0.302042
0.299639
0.297396
0.295293
0.293309
0.291427
0.289628
0.287897
0.286218
0.284577
0.28296
0.281355
0.279749
0.278133
0.276495
0.274827
0.273118
0.271363
0.269552
0.267678
0.265736
0.26372
0.261623
0.259442
0.257172
0.254809
0.25235
0.24979
0.247129
0.244362
0.241489
0.238507
0.235415
0.232212
0.228897
0.22547
0.22193
0.218277
0.214512
0.210634
0.206646
0.202546
0.198337
0.194019
0.189595
0.185065
0.180431
0.175696
0.17086
0.165927
0.160898
0.155777
0.150565
0.145265
0.139879
0.134412
0.128865
0.123242
0.117545
0.111779
0.105946
0.100049
0.094092
0.0880786
0.0820122
0.0758962
0.0697344
0.0635304
0.0572879
0.0510106
0.0447024
0.0383669
0.0320082
0.02563
0.0192362
0.0128306
0.00641727
0
500
476.372
452.977
430.035
407.738
386.244
365.67
346.097
327.568
310.099
293.679
278.279
263.858
250.366
237.748
225.947
214.907
204.571
194.887
185.804
177.275
169.258
161.712
154.601
147.89
141.549
135.551
129.869
124.482
119.366
114.504
109.878
105.472
101.271
97.262
93.4331
89.7731
86.2718
82.9197
79.7085
76.63
73.6771
70.8431
68.1217
65.5073
62.9944
60.5782
58.254
56.0176
53.865
51.7925
49.7965
47.8739
46.0216
44.2366
42.5164
40.8582
39.2598
37.7188
36.2331
34.8006
33.4195
32.0878
30.8038
29.5658
28.3723
27.2217
26.1125
25.0434
24.013
23.0199
22.0631
21.1412
20.2532
19.3979
18.5743
17.7814
17.018
16.2834
15.5764
14.8964
14.2423
13.6134
13.0087
12.4276
11.8692
11.3329
10.8178
10.3233
9.84861
9.39318
8.95632
8.5374
8.1358
7.75095
7.38225
7.02914
6.69109
6.36756
6.05803
5.762
5.479
5.20854
4.95017
4.70343
4.46791
4.24317
4.02881
3.82444
3.62966
3.44411
3.26742
3.09925
2.93926
2.78711
2.64249
2.50509
2.37461
2.25077
2.13328
2.02187
1.91629
1.81627
1.72159
1.63199
1.54727
1.46719
1.39154
1.32013
1.25275
1.18922
1.12935
1.07297
1.01991
0.970017
0.923123
0.879082
0.837752
0.798992
0.762672
0.728664
0.696846
0.667101
0.639317
0.613387
0.589207
0.566681
0.545713
0.526213
0.508097
0.491281
0.475687
0.46124
0.44787
0.435507
0.424086
0.413547
0.40383
0.394878
0.386639
0.379062
0.372098
0.365702
0.35983
0.35444
0.349494
0.344954
0.340785