# vtk DataFile Version 3.0
Scalar Field Data
ASCII
DATASET STRUCTURED_POINTS
DIMENSIONS 100 100 1
ORIGIN 0 0 0
SPACING 0.01 0.01 1
POINT_DATA 10000
SCALARS scalars double
LOOKUP_TABLE default
0
0
0
0
0
0
0
0
0
0
0
0
0
0
0
0
0
0
0
0
0
0
0
0
0
0
0
0
0
0
0
0
0
0
0
0
0
0
0
0
0
0
0
0
0
0
0
0
0
0
0
0
0
0
0
0
0
0
0
0
0
0
0
0
0
0
0
0
0
0
0
0
0
0
0
0
0
0
0
0
0
0
0
0
0
0
0
0
0
0
0
0
0
0
0
0
0
0
0
0
0
0.00364678
0.00727917
0.0108828
0.0144435
0.0179472
0.0213801
0.0247286
0.0279796
0.0311201
0.0341377
0.0370207
0.0397576
0.0423375
0.0447504
0.0469867
0.0490376
0.0508949
0.0525514
0.0540006
0.0552366
0.0562546
0.0570507
0.0576217
0.0579652
0.0580801
0.0579657
0.0576227
0.0570523
0.0562567
0.0552393
0.0540039
0.0525555
0.0508997
0.0490432
0.0469932
0.044758
0.0423462
0.0397675
0.0370321
0.0341507
0.0311348
0.0279963
0.0247476
0.0214015
0.0179714
0.0144708
0.0109135
0.00731368
0.00368555
4.34888e-05
-0.00359805
-0.00722463
-0.0108219
-0.0143755
-0.0178713
-0.0212955
-0.0246345
-0.0278749
-0.0310038
-0.0340088
-0.0368778
-0.0395993
-0.0421625
-0.044557
-0.0467733
-0.0488022
-0.0506356
-0.0522661
-0.0536868
-0.0548919
-0.0558764
-0.056636
-0.0571673
-0.057468
-0.0575364
-0.0573717
-0.0569743
-0.0563451
-0.0554861
-0.0544002
-0.053091
-0.0515631
-0.0498218
-0.0478732
-0.0457243
-0.0433827
-0.0408568
-0.0381556
-0.0352888
-0.0322667
-0.0291
-0.0258
-0.0223786
-0.0188478
-0.0152201
-0.0115084
-0.00772567
-0.00388509
0
0
0.00727917
0.0145296
0.0217227
0.0288301
0.0358237
0.0426759
0.0493597
0.0558487
0.0621173
0.0681408
0.0738953
0.0793583
0.084508
0.0893243
0.093788
0.0978817
0.101589
0.104895
0.107788
0.110255
0.112287
0.113876
0.115016
0.115702
0.115931
0.115703
0.115018
0.113879
0.112291
0.110261
0.107795
0.104904
0.101599
0.0978928
0.093801
0.0893393
0.0845253
0.0793781
0.073918
0.0681666
0.0621467
0.0558821
0.0493975
0.0427186
0.0358719
0.0288845
0.021784
0.0145985
0.00735655
8.68059e-05
-0.0071819
-0.0144208
-0.021601
-0.0286942
-0.0356721
-0.042507
-0.0491718
-0.0556398
-0.0618853
-0.0678833
-0.07361
-0.0790424
-0.0841586
-0.0889382
-0.0933619
-0.0974118
-0.101071
-0.104326
-0.107162
-0.109567
-0.111532
-0.113048
-0.114109
-0.114709
-0.114846
-0.114517
-0.113724
-0.112468
-0.110753
-0.108586
-0.105973
-0.102923
-0.0994469
-0.0955575
-0.0912681
-0.0865942
-0.0815524
-0.0761607
-0.0704384
-0.064406
-0.0580851
-0.0514982
-0.0446688
-0.0376212
-0.0303802
-0.0229714
-0.0154209
-0.00775485
0
0
0.0108828
0.0217227
0.0324769
0.0431028
0.0535587
0.0638032
0.0737959
0.0834974
0.0928694
0.101875
0.110478
0.118646
0.126345
0.133546
0.140219
0.146339
0.151882
0.156826
0.16115
0.164839
0.167877
0.170252
0.171956
0.172982
0.173324
0.172983
0.171959
0.170257
0.167883
0.164847
0.16116
0.156838
0.151896
0.146356
0.140239
0.133568
0.126371
0.118675
0.110512
0.101914
0.0929134
0.0835473
0.0738525
0.0638671
0.0536309
0.0431842
0.0325685
0.0218257
0.0109985
0.000129781
-0.0107374
-0.02156
-0.0322949
-0.0428997
-0.0533321
-0.0635508
-0.073515
-0.083185
-0.0925225
-0.10149
-0.110052
-0.118173
-0.125823
-0.132968
-0.139582
-0.145637
-0.151108
-0.155974
-0.160214
-0.16381
-0.166748
-0.169015
-0.1706
-0.171498
-0.171702
-0.17121
-0.170024
-0.168147
-0.165583
-0.162343
-0.158436
-0.153876
-0.14868
-0.142865
-0.136452
-0.129464
-0.121926
-0.113865
-0.10531
-0.0962912
-0.086841
-0.0769932
-0.0667828
-0.0562461
-0.0454203
-0.0343438
-0.0230552
-0.011594
0
0
0.0144435
0.0288301
0.0431028
0.0572055
0.0710824
0.0846788
0.097941
0.110817
0.123255
0.135207
0.146625
0.157465
0.167683
0.17724
0.186097
0.19422
0.201576
0.208137
0.213876
0.218772
0.222804
0.225957
0.228218
0.229579
0.230034
0.229581
0.228222
0.225963
0.222812
0.218782
0.213889
0.208153
0.201595
0.194242
0.186123
0.17727
0.167718
0.157504
0.14667
0.135258
0.123313
0.110883
0.098016
0.0847636
0.0711782
0.0573135
0.0432244
0.0289668
0.0145971
0.000172243
-0.0142505
-0.0286141
-0.0428614
-0.0569359
-0.0707817
-0.0843437
-0.0975681
-0.110402
-0.122795
-0.134696
-0.146059
-0.156838
-0.16699
-0.176474
-0.185252
-0.193287
-0.200549
-0.207006
-0.212633
-0.217407
-0.221306
-0.224314
-0.226419
-0.227609
-0.22788
-0.227228
-0.225654
-0.223162
-0.21976
-0.215459
-0.210274
-0.204222
-0.197326
-0.189608
-0.181097
-0.171823
-0.161819
-0.15112
-0.139766
-0.127796
-0.115254
-0.102184
-0.0886332
-0.074649
-0.0602813
-0.0455806
-0.0305985
-0.0153874
0
0
0.0179472
0.0358237
0.0535587
0.0710824
0.0883255
0.10522
0.121699
0.137699
0.153154
0.168005
0.182194
0.195663
0.20836
0.220235
0.23124
0.241333
0.250474
0.258627
0.265758
0.271841
0.276851
0.280769
0.283579
0.28527
0.285835
0.285272
0.283584
0.280777
0.276862
0.271854
0.265775
0.258646
0.250498
0.241361
0.231272
0.220272
0.208403
0.195712
0.18225
0.168069
0.153227
0.137781
0.121793
0.105326
0.0884445
0.0712166
0.0537098
0.0359935
0.018138
0.000214026
-0.0177074
-0.0355553
-0.0532587
-0.0707474
-0.0879519
-0.104804
-0.121236
-0.137183
-0.152582
-0.167371
-0.18149
-0.194884
-0.207498
-0.219283
-0.23019
-0.240175
-0.249198
-0.257222
-0.264214
-0.270145
-0.27499
-0.278728
-0.281343
-0.282823
-0.283159
-0.282349
-0.280393
-0.277297
-0.273069
-0.267725
-0.261282
-0.253763
-0.245193
-0.235603
-0.225027
-0.213504
-0.201073
-0.187779
-0.17367
-0.158797
-0.143213
-0.126972
-0.110134
-0.0927574
-0.0749043
-0.0566375
-0.0380211
-0.0191201
0
0
0.0213801
0.0426759
0.0638032
0.0846788
0.10522
0.125346
0.144978
0.164037
0.182449
0.200141
0.217043
0.233089
0.248214
0.26236
0.275471
0.287495
0.298384
0.308096
0.316592
0.323838
0.329807
0.334474
0.337821
0.339835
0.340509
0.339838
0.337827
0.334483
0.329819
0.323854
0.316611
0.308119
0.298412
0.287528
0.275509
0.262405
0.248265
0.233147
0.21711
0.200217
0.182535
0.164135
0.145089
0.125472
0.105362
0.0848386
0.0639832
0.0428783
0.0216074
0.000254965
-0.0210945
-0.0423562
-0.0634458
-0.0842797
-0.104775
-0.12485
-0.144426
-0.163423
-0.181767
-0.199385
-0.216205
-0.232161
-0.247188
-0.261227
-0.27422
-0.286115
-0.296864
-0.306423
-0.314752
-0.321817
-0.327589
-0.332042
-0.335158
-0.33692
-0.337321
-0.336356
-0.334026
-0.330337
-0.325301
-0.318935
-0.311259
-0.302301
-0.292092
-0.280668
-0.26807
-0.254342
-0.239533
-0.223697
-0.206889
-0.189171
-0.170606
-0.151259
-0.1312
-0.1105
-0.0892317
-0.0674709
-0.0452936
-0.0227773
0
0
0.0247286
0.0493597
0.0737959
0.097941
0.121699
0.144978
0.167684
0.189728
0.211024
0.231486
0.251036
0.269594
0.287089
0.303451
0.318615
0.332522
0.345116
0.356349
0.366175
0.374557
0.38146
0.386858
0.39073
0.393059
0.393838
0.393063
0.390737
0.386869
0.381474
0.374575
0.366198
0.356376
0.345149
0.33256
0.318659
0.303502
0.287148
0.269662
0.251113
0.231574
0.211124
0.189841
0.167812
0.145123
0.121863
0.0981258
0.0740041
0.0495938
0.0249915
0.000294897
-0.0243982
-0.0489899
-0.0733826
-0.0974794
-0.121185
-0.144404
-0.167045
-0.189018
-0.210235
-0.230612
-0.250066
-0.268521
-0.285902
-0.302139
-0.317167
-0.330926
-0.343358
-0.354414
-0.364048
-0.37222
-0.378895
-0.384046
-0.387649
-0.389688
-0.390151
-0.389035
-0.38634
-0.382074
-0.376249
-0.368885
-0.360008
-0.349647
-0.337839
-0.324626
-0.310054
-0.294176
-0.277048
-0.258731
-0.239292
-0.218799
-0.197326
-0.174949
-0.151748
-0.127806
-0.103207
-0.078038
-0.0523874
-0.0263446
0
0
0.0279796
0.0558487
0.0834974
0.110817
0.137699
0.164037
0.189728
0.21467
0.238766
0.261919
0.284038
0.305036
0.324831
0.343343
0.360501
0.376236
0.390487
0.403196
0.414314
0.423797
0.431608
0.437716
0.442097
0.444733
0.445614
0.444736
0.442104
0.437728
0.431624
0.423818
0.41434
0.403227
0.390523
0.376279
0.360551
0.343401
0.324897
0.305113
0.284125
0.262018
0.238879
0.214799
0.189873
0.164201
0.137884
0.111026
0.0837329
0.0561135
0.028277
0.000333666
-0.0276057
-0.0554303
-0.0830297
-0.110294
-0.137116
-0.163388
-0.189006
-0.213867
-0.237874
-0.260929
-0.282941
-0.303822
-0.323488
-0.34186
-0.358863
-0.37443
-0.388497
-0.401006
-0.411907
-0.421153
-0.428706
-0.434534
-0.438611
-0.440918
-0.441442
-0.440179
-0.43713
-0.432302
-0.425712
-0.417381
-0.407336
-0.395613
-0.382253
-0.367303
-0.350815
-0.33285
-0.31347
-0.292745
-0.27075
-0.247563
-0.223267
-0.197948
-0.171697
-0.144608
-0.116775
-0.0882972
-0.0592745
-0.029808
0
0
0.0311201
0.0621173
0.0928694
0.123255
0.153154
0.182449
0.211024
0.238766
0.265565
0.291317
0.315919
0.339274
0.361291
0.381881
0.400965
0.418466
0.434316
0.448452
0.460818
0.471366
0.480053
0.486846
0.491719
0.49465
0.49563
0.494655
0.491727
0.48686
0.480071
0.471388
0.460846
0.448486
0.434356
0.418514
0.40102
0.381946
0.361365
0.339359
0.316016
0.291428
0.265691
0.238908
0.211185
0.182632
0.153361
0.123488
0.0931313
0.0624119
0.0314509
0.000371118
-0.0307042
-0.0616519
-0.0923492
-0.122674
-0.152506
-0.181727
-0.21022
-0.237872
-0.264573
-0.290216
-0.314699
-0.337924
-0.359797
-0.380231
-0.399143
-0.416457
-0.432103
-0.446016
-0.45814
-0.468424
-0.476825
-0.483307
-0.487842
-0.490407
-0.490991
-0.489586
-0.486194
-0.480825
-0.473495
-0.464228
-0.453056
-0.440018
-0.425158
-0.40853
-0.390192
-0.37021
-0.348655
-0.325604
-0.30114
-0.27535
-0.248327
-0.220166
-0.190969
-0.160839
-0.129882
-0.0982079
-0.0659276
-0.0331537
0
0
0.0341377
0.0681408
0.101875
0.135207
0.168005
0.200141
0.231486
0.261919
0.291317
0.319566
0.346553
0.372173
0.396325
0.418912
0.439846
0.459044
0.476431
0.491938
0.505503
0.517074
0.526604
0.534056
0.5394
0.542616
0.543691
0.542621
0.53941
0.53407
0.526623
0.517099
0.505534
0.491975
0.476476
0.459097
0.439907
0.418982
0.396406
0.372267
0.34666
0.319687
0.291455
0.262075
0.231664
0.200341
0.168232
0.135462
0.102162
0.0684639
0.0345007
0.000407107
-0.0336816
-0.0676303
-0.101304
-0.13457
-0.167295
-0.199349
-0.230605
-0.260939
-0.290229
-0.318358
-0.345215
-0.370692
-0.394686
-0.417102
-0.437848
-0.456841
-0.474004
-0.489266
-0.502566
-0.513847
-0.523063
-0.530173
-0.535147
-0.537962
-0.538602
-0.537061
-0.53334
-0.52745
-0.51941
-0.509244
-0.496989
-0.482686
-0.466385
-0.448144
-0.428028
-0.406108
-0.382463
-0.357177
-0.330341
-0.302051
-0.272407
-0.241516
-0.209487
-0.176435
-0.142477
-0.107731
-0.0723205
-0.0363686
0
0
0.0370207
0.0738953
0.110478
0.146625
0.182194
0.217043
0.251036
0.284038
0.315919
0.346553
0.37582
0.403604
0.429795
0.454289
0.476991
0.497811
0.516666
0.533482
0.548193
0.560741
0.571076
0.579157
0.584953
0.588441
0.589607
0.588446
0.584963
0.579173
0.571097
0.560768
0.548227
0.533523
0.516714
0.497868
0.477058
0.454366
0.429883
0.403705
0.375936
0.346685
0.316069
0.284208
0.251228
0.21726
0.182439
0.146902
0.11079
0.0742457
0.0374143
0.000441489
-0.036526
-0.0733417
-0.109859
-0.145934
-0.181423
-0.216184
-0.25008
-0.282975
-0.314739
-0.345244
-0.374369
-0.401997
-0.428018
-0.452326
-0.474824
-0.495421
-0.514034
-0.530585
-0.545008
-0.557242
-0.567236
-0.574947
-0.580341
-0.583393
-0.584087
-0.582416
-0.578381
-0.571994
-0.563274
-0.55225
-0.53896
-0.523449
-0.505772
-0.485991
-0.464176
-0.440405
-0.414763
-0.387341
-0.358239
-0.327559
-0.295412
-0.261912
-0.227179
-0.191335
-0.154509
-0.116829
-0.078428
-0.03944
0
0
0.0397576
0.0793583
0.118646
0.157465
0.195663
0.233089
0.269594
0.305036
0.339274
0.372173
0.403604
0.433441
0.461569
0.487874
0.512254
0.534613
0.554862
0.572922
0.58872
0.602195
0.613294
0.621973
0.628197
0.631943
0.633195
0.631949
0.628209
0.62199
0.613317
0.602225
0.588756
0.572965
0.554914
0.534674
0.512325
0.487956
0.461663
0.43355
0.403728
0.372315
0.339435
0.305218
0.269801
0.233322
0.195926
0.157762
0.11898
0.0797346
0.0401802
0.000474129
-0.0392263
-0.0787637
-0.117981
-0.156723
-0.194835
-0.232166
-0.268568
-0.303895
-0.338007
-0.370767
-0.402045
-0.431716
-0.45966
-0.485766
-0.509927
-0.532047
-0.552035
-0.56981
-0.585299
-0.598438
-0.60917
-0.617452
-0.623245
-0.626522
-0.627268
-0.625473
-0.62114
-0.61428
-0.604916
-0.593077
-0.578804
-0.562147
-0.543162
-0.521919
-0.498491
-0.472963
-0.445425
-0.415977
-0.384723
-0.351775
-0.317251
-0.281275
-0.243974
-0.20548
-0.165931
-0.125466
-0.0842261
-0.0423557
0
0
0.0423375
0.084508
0.126345
0.167683
0.20836
0.248214
0.287089
0.324831
0.361291
0.396325
0.429795
0.461569
0.491521
0.519534
0.545496
0.569306
0.590869
0.6101
0.626924
0.641273
0.653092
0.662334
0.668963
0.672951
0.674285
0.672957
0.668975
0.662352
0.653117
0.641304
0.626962
0.610146
0.590924
0.569371
0.545572
0.519621
0.491622
0.461684
0.429927
0.396475
0.361462
0.325025
0.287309
0.248463
0.208641
0.168
0.126701
0.0849088
0.0427876
0.000504899
-0.0417718
-0.0838749
-0.125637
-0.166893
-0.207478
-0.247232
-0.285996
-0.323615
-0.359941
-0.394827
-0.428135
-0.459731
-0.489489
-0.517288
-0.543018
-0.566573
-0.587858
-0.606787
-0.623281
-0.637272
-0.648701
-0.65752
-0.663688
-0.667179
-0.667973
-0.666061
-0.661447
-0.654143
-0.64417
-0.631563
-0.616364
-0.598626
-0.57841
-0.555787
-0.530839
-0.503655
-0.47433
-0.44297
-0.409688
-0.374602
-0.337838
-0.299527
-0.259806
-0.218815
-0.176699
-0.133608
-0.0896917
-0.0451042
0
0
0.0447504
0.0893243
0.133546
0.17724
0.220235
0.26236
0.303451
0.343343
0.381881
0.418912
0.454289
0.487874
0.519534
0.549143
0.576585
0.601751
0.624543
0.644871
0.662653
0.677821
0.690313
0.700082
0.707088
0.711304
0.712713
0.71131
0.707101
0.700101
0.690339
0.677854
0.662694
0.64492
0.624602
0.60182
0.576665
0.549235
0.51964
0.487996
0.454429
0.419071
0.382062
0.343549
0.303683
0.262623
0.220531
0.177574
0.133922
0.0897479
0.0452262
0.000533676
-0.0441525
-0.0886551
-0.132797
-0.176405
-0.219303
-0.261322
-0.302295
-0.342059
-0.380455
-0.417329
-0.452535
-0.485932
-0.517386
-0.546769
-0.573965
-0.598863
-0.621361
-0.641368
-0.658803
-0.673591
-0.685672
-0.694993
-0.701513
-0.705203
-0.706042
-0.704021
-0.699144
-0.691423
-0.680883
-0.667557
-0.651492
-0.632742
-0.611374
-0.587463
-0.561093
-0.532359
-0.501363
-0.468216
-0.433037
-0.395951
-0.357092
-0.316598
-0.274612
-0.231285
-0.186769
-0.141222
-0.0948034
-0.0476748
0
0
0.0469867
0.093788
0.140219
0.186097
0.23124
0.275471
0.318615
0.360501
0.400965
0.439846
0.476991
0.512254
0.545496
0.576585
0.605398
0.631822
0.655753
0.677096
0.695767
0.711693
0.72481
0.735067
0.742423
0.74685
0.748329
0.746856
0.742436
0.735087
0.724837
0.711728
0.69581
0.677148
0.655815
0.631894
0.605482
0.576682
0.545608
0.512383
0.477138
0.440013
0.401155
0.360717
0.318859
0.275747
0.231552
0.186448
0.140615
0.0942328
0.0474862
0.000560349
-0.0463589
-0.0930854
-0.139434
-0.18522
-0.230262
-0.274381
-0.317402
-0.359152
-0.399467
-0.438184
-0.47515
-0.510215
-0.543241
-0.574093
-0.602648
-0.628789
-0.652412
-0.673419
-0.691724
-0.707252
-0.719936
-0.729723
-0.73657
-0.740443
-0.741324
-0.739203
-0.734082
-0.725975
-0.714908
-0.700917
-0.684049
-0.664362
-0.641926
-0.61682
-0.589132
-0.558962
-0.526417
-0.491614
-0.454677
-0.415738
-0.374937
-0.332419
-0.288335
-0.242843
-0.196103
-0.14828
-0.0995409
-0.0500572
0
0
0.0490376
0.0978817
0.146339
0.19422
0.241333
0.287495
0.332522
0.376236
0.418466
0.459044
0.497811
0.534613
0.569306
0.601751
0.631822
0.6594
0.684375
0.70665
0.726136
0.742757
0.756446
0.767151
0.774828
0.779448
0.780992
0.779455
0.774842
0.767172
0.756475
0.742793
0.726181
0.706704
0.684439
0.659475
0.63191
0.601853
0.569422
0.534747
0.497964
0.459219
0.418664
0.376461
0.332776
0.287783
0.241659
0.194586
0.146752
0.0983458
0.0495589
0.000584811
-0.0483823
-0.0971483
-0.14552
-0.193304
-0.240312
-0.286357
-0.331256
-0.374829
-0.416903
-0.45731
-0.495889
-0.532485
-0.566952
-0.599151
-0.628952
-0.656235
-0.680888
-0.702812
-0.721917
-0.738122
-0.75136
-0.761574
-0.768719
-0.772762
-0.773681
-0.771468
-0.766123
-0.757663
-0.746112
-0.73151
-0.713906
-0.69336
-0.669945
-0.643742
-0.614846
-0.583359
-0.549394
-0.513072
-0.474522
-0.433884
-0.391302
-0.346928
-0.300921
-0.253443
-0.204662
-0.154752
-0.103886
-0.0522421
0
0
0.0508949
0.101589
0.151882
0.201576
0.250474
0.298384
0.345116
0.390487
0.434316
0.476431
0.516666
0.554862
0.590869
0.624543
0.655753
0.684375
0.710297
0.733415
0.753639
0.770889
0.785097
0.796207
0.804176
0.80897
0.810573
0.808977
0.80419
0.796229
0.785127
0.770927
0.753686
0.733471
0.710363
0.684453
0.655844
0.624648
0.59099
0.555001
0.516825
0.476612
0.434521
0.39072
0.345381
0.298683
0.250812
0.201956
0.152311
0.102071
0.051436
0.000606966
-0.0502149
-0.100828
-0.151031
-0.200626
-0.249415
-0.297203
-0.343802
-0.389026
-0.432693
-0.474631
-0.514671
-0.552653
-0.588426
-0.621844
-0.652774
-0.68109
-0.706678
-0.729432
-0.74926
-0.766079
-0.779818
-0.790419
-0.797835
-0.802031
-0.802985
-0.800688
-0.795141
-0.78636
-0.774372
-0.759217
-0.740946
-0.719622
-0.695319
-0.668125
-0.638134
-0.605455
-0.570203
-0.532505
-0.492495
-0.450318
-0.406123
-0.360068
-0.312318
-0.263042
-0.212414
-0.160613
-0.10782
-0.0542208
0
0
0.0525514
0.104895
0.156826
0.208137
0.258627
0.308096
0.356349
0.403196
0.448452
0.491938
0.533482
0.572922
0.6101
0.644871
0.677096
0.70665
0.733415
0.757286
0.778168
0.79598
0.81065
0.822122
0.83035
0.8353
0.836955
0.835308
0.830364
0.822144
0.810681
0.796019
0.778216
0.757344
0.733484
0.706731
0.67719
0.644979
0.610225
0.573065
0.533646
0.492124
0.448664
0.403437
0.356622
0.308404
0.258975
0.20853
0.157268
0.105393
0.0531101
0.000626727
-0.0518492
-0.10411
-0.155947
-0.207156
-0.257532
-0.306877
-0.354992
-0.401687
-0.446776
-0.490079
-0.531422
-0.570641
-0.607577
-0.642084
-0.67402
-0.703258
-0.729678
-0.753173
-0.773647
-0.791013
-0.805199
-0.816145
-0.823803
-0.828135
-0.82912
-0.826748
-0.821021
-0.811954
-0.799576
-0.783927
-0.765061
-0.743043
-0.71795
-0.689871
-0.658904
-0.625161
-0.588762
-0.549836
-0.508525
-0.464975
-0.419341
-0.371788
-0.322483
-0.271603
-0.219328
-0.16584
-0.11133
-0.0559856
0
0
0.0540006
0.107788
0.16115
0.213876
0.265758
0.316592
0.366175
0.414314
0.460818
0.505503
0.548193
0.58872
0.626924
0.662653
0.695767
0.726136
0.753639
0.778168
0.799627
0.817929
0.833004
0.844792
0.853247
0.858334
0.860035
0.858342
0.853262
0.844815
0.833035
0.817969
0.799676
0.778228
0.75371
0.726219
0.695864
0.662765
0.627052
0.588867
0.548362
0.505695
0.461036
0.414562
0.366456
0.316909
0.266116
0.21428
0.161605
0.108299
0.0545747
0.000644016
-0.053279
-0.10698
-0.160247
-0.212868
-0.264634
-0.315339
-0.364781
-0.412764
-0.459096
-0.503593
-0.546076
-0.586376
-0.624332
-0.659789
-0.692606
-0.72265
-0.749799
-0.773942
-0.79498
-0.812825
-0.827403
-0.838651
-0.846519
-0.850971
-0.851984
-0.849546
-0.843661
-0.834344
-0.821624
-0.805544
-0.786158
-0.763533
-0.737748
-0.708894
-0.677073
-0.6424
-0.604997
-0.564998
-0.522548
-0.477796
-0.430905
-0.38204
-0.331376
-0.279093
-0.225376
-0.170414
-0.1144
-0.0575294
0
0
0.0552366
0.110255
0.164839
0.218772
0.271841
0.323838
0.374557
0.423797
0.471366
0.517074
0.560741
0.602195
0.641273
0.677821
0.711693
0.742757
0.770889
0.79598
0.817929
0.836651
0.852071
0.864129
0.872777
0.877981
0.87972
0.877988
0.872792
0.864152
0.852103
0.836692
0.81798
0.796041
0.770962
0.742841
0.711792
0.677935
0.641405
0.602346
0.560913
0.51727
0.471589
0.424051
0.374844
0.324162
0.272207
0.219185
0.165304
0.110778
0.0558238
0.000658765
-0.0544985
-0.109429
-0.163915
-0.21774
-0.270691
-0.322557
-0.373131
-0.422212
-0.469605
-0.51512
-0.558576
-0.599798
-0.638622
-0.674891
-0.708459
-0.739191
-0.766962
-0.791657
-0.813176
-0.83143
-0.846342
-0.857847
-0.865895
-0.870449
-0.871485
-0.868991
-0.862971
-0.853441
-0.840431
-0.823983
-0.804153
-0.78101
-0.754634
-0.72512
-0.692571
-0.657104
-0.618845
-0.577931
-0.534508
-0.488733
-0.440768
-0.390784
-0.338961
-0.285481
-0.230534
-0.174314
-0.117018
-0.0588462
0
0
0.0562546
0.112287
0.167877
0.222804
0.276851
0.329807
0.38146
0.431608
0.480053
0.526604
0.571076
0.613294
0.653092
0.690313
0.72481
0.756446
0.785097
0.81065
0.833004
0.852071
0.867775
0.880055
0.888863
0.894162
0.895934
0.89417
0.888878
0.880079
0.867808
0.852113
0.833056
0.810712
0.785171
0.756533
0.724911
0.69043
0.653226
0.613448
0.571251
0.526803
0.48028
0.431866
0.381752
0.330137
0.277224
0.223224
0.16835
0.11282
0.0568527
0.000670916
-0.0555029
-0.111446
-0.166936
-0.221754
-0.27568
-0.328502
-0.380008
-0.429993
-0.47826
-0.524614
-0.568871
-0.610853
-0.650392
-0.68733
-0.721517
-0.752815
-0.781097
-0.806248
-0.828164
-0.846754
-0.86194
-0.873658
-0.881854
-0.886492
-0.887547
-0.885007
-0.878876
-0.869171
-0.85592
-0.839169
-0.818974
-0.795404
-0.768543
-0.738484
-0.705335
-0.669214
-0.63025
-0.588582
-0.54436
-0.49774
-0.448891
-0.397987
-0.345208
-0.290743
-0.234783
-0.177527
-0.119175
-0.0599307
0
0
0.0570507
0.113876
0.170252
0.225957
0.280769
0.334474
0.386858
0.437716
0.486846
0.534056
0.579157
0.621973
0.662334
0.700082
0.735067
0.767151
0.796207
0.822122
0.844792
0.864129
0.880055
0.892509
0.901441
0.906816
0.908612
0.906824
0.901457
0.892533
0.880088
0.864171
0.844844
0.822185
0.796282
0.767238
0.735169
0.7002
0.66247
0.622129
0.579335
0.534258
0.487077
0.437978
0.387155
0.334809
0.281148
0.226383
0.170733
0.114416
0.0576573
0.000680421
-0.0562883
-0.113023
-0.169299
-0.224892
-0.279581
-0.33315
-0.385385
-0.436078
-0.485028
-0.532038
-0.576921
-0.619497
-0.659596
-0.697056
-0.731727
-0.763468
-0.792151
-0.817657
-0.839883
-0.858736
-0.874138
-0.886021
-0.894333
-0.899037
-0.900107
-0.897531
-0.891313
-0.88147
-0.868032
-0.851044
-0.830563
-0.80666
-0.779418
-0.748935
-0.715317
-0.678685
-0.639169
-0.596911
-0.552063
-0.504784
-0.455244
-0.403619
-0.350093
-0.294857
-0.238105
-0.180039
-0.120861
-0.0607788
0
0
0.0576217
0.115016
0.171956
0.228218
0.283579
0.337821
0.39073
0.442097
0.491719
0.5394
0.584953
0.628197
0.668963
0.707088
0.742423
0.774828
0.804176
0.83035
0.853247
0.872777
0.888863
0.901441
0.910462
0.915891
0.917705
0.915899
0.910478
0.901465
0.888896
0.872819
0.853299
0.830413
0.804251
0.774917
0.742526
0.707207
0.6691
0.628355
0.585133
0.539605
0.491951
0.442361
0.391029
0.338159
0.283961
0.228649
0.172441
0.115561
0.0582343
0.000687243
-0.0568516
-0.114154
-0.170993
-0.227142
-0.282379
-0.336484
-0.389242
-0.440442
-0.489882
-0.537362
-0.582694
-0.625697
-0.666197
-0.704032
-0.73905
-0.771109
-0.800078
-0.82584
-0.848288
-0.86733
-0.882886
-0.894888
-0.903284
-0.908034
-0.909114
-0.906513
-0.900233
-0.890292
-0.876719
-0.859561
-0.838875
-0.814733
-0.787218
-0.756429
-0.722475
-0.685476
-0.645565
-0.602885
-0.557588
-0.509835
-0.459799
-0.407658
-0.353597
-0.297808
-0.240488
-0.181841
-0.122071
-0.0613871
0
0
0.0579652
0.115702
0.172982
0.229579
0.28527
0.339835
0.393059
0.444733
0.49465
0.542616
0.588441
0.631943
0.672951
0.711304
0.74685
0.779448
0.80897
0.8353
0.858334
0.877981
0.894162
0.906816
0.915891
0.921352
0.923177
0.92136
0.915907
0.90684
0.894196
0.878023
0.858387
0.835364
0.809046
0.779537
0.746953
0.711424
0.673089
0.632101
0.588622
0.542822
0.494885
0.444998
0.393361
0.340176
0.285654
0.230012
0.173469
0.11625
0.0585815
0.000691356
-0.0571906
-0.114835
-0.172012
-0.228497
-0.284063
-0.33849
-0.391563
-0.443068
-0.492802
-0.540566
-0.586168
-0.629427
-0.670169
-0.70823
-0.743456
-0.775706
-0.804848
-0.830764
-0.853346
-0.872502
-0.88815
-0.900223
-0.908669
-0.913448
-0.914535
-0.911918
-0.905601
-0.8956
-0.881947
-0.864686
-0.843877
-0.81959
-0.791912
-0.76094
-0.726783
-0.689563
-0.649414
-0.606479
-0.560912
-0.512875
-0.462541
-0.410088
-0.355705
-0.299583
-0.241922
-0.182925
-0.122799
-0.0617531
0
0
0.0580801
0.115931
0.173324
0.230034
0.285835
0.340509
0.393838
0.445614
0.49563
0.543691
0.589607
0.633195
0.674285
0.712713
0.748329
0.780992
0.810573
0.836955
0.860035
0.87972
0.895934
0.908612
0.917705
0.923177
0.925006
0.923185
0.917722
0.908637
0.895967
0.879763
0.860087
0.837019
0.810649
0.781081
0.748433
0.712833
0.674423
0.633354
0.589788
0.543898
0.495865
0.44588
0.39414
0.34085
0.28622
0.230468
0.173813
0.116481
0.0586976
0.000692744
-0.0573039
-0.115062
-0.172353
-0.228949
-0.284626
-0.339161
-0.392338
-0.443946
-0.493779
-0.541637
-0.58733
-0.630674
-0.671497
-0.709633
-0.744929
-0.777243
-0.806443
-0.83241
-0.855037
-0.87423
-0.889909
-0.902007
-0.910469
-0.915258
-0.916347
-0.913725
-0.907395
-0.897374
-0.883694
-0.866399
-0.845548
-0.821214
-0.793481
-0.762447
-0.728223
-0.690929
-0.650701
-0.607681
-0.562023
-0.513891
-0.463457
-0.410901
-0.356409
-0.300177
-0.242401
-0.183287
-0.123042
-0.0618754
0
0
0.0579657
0.115703
0.172983
0.229581
0.285272
0.339838
0.393063
0.444736
0.494655
0.542621
0.588446
0.631949
0.672957
0.71131
0.746856
0.779455
0.808977
0.835308
0.858342
0.877988
0.89417
0.906824
0.915899
0.92136
0.923185
0.921368
0.915915
0.906848
0.894204
0.878031
0.858394
0.835371
0.809053
0.779544
0.74696
0.71143
0.673095
0.632107
0.588627
0.542827
0.494889
0.445002
0.393364
0.340179
0.285657
0.230014
0.173471
0.116251
0.0585821
0.0006914
-0.057191
-0.114836
-0.172014
-0.228498
-0.284065
-0.338493
-0.391566
-0.443072
-0.492807
-0.540571
-0.586173
-0.629433
-0.670175
-0.708236
-0.743463
-0.775713
-0.804855
-0.830771
-0.853353
-0.872509
-0.888157
-0.900231
-0.908677
-0.913456
-0.914543
-0.911926
-0.905608
-0.895607
-0.881954
-0.864693
-0.843884
-0.819597
-0.791919
-0.760946
-0.726789
-0.689569
-0.64942
-0.606484
-0.560917
-0.512879
-0.462545
-0.410092
-0.355708
-0.299586
-0.241924
-0.182926
-0.1228
-0.0617536
0
0
0.0576227
0.115018
0.171959
0.228222
0.283584
0.337827
0.390737
0.442104
0.491727
0.53941
0.584963
0.628209
0.668975
0.707101
0.742436
0.774842
0.80419
0.830364
0.853262
0.872792
0.888878
0.901457
0.910478
0.915907
0.917722
0.915915
0.910494
0.901481
0.888911
0.872835
0.853314
0.830427
0.804265
0.77493
0.742539
0.70722
0.669112
0.628366
0.585143
0.539614
0.49196
0.442369
0.391036
0.338165
0.283966
0.228653
0.172444
0.115563
0.0582354
0.000687332
-0.0568525
-0.114156
-0.170996
-0.227146
-0.282384
-0.33649
-0.389249
-0.44045
-0.48989
-0.537371
-0.582704
-0.625707
-0.666208
-0.704044
-0.739063
-0.771122
-0.800092
-0.825854
-0.848303
-0.867345
-0.882901
-0.894903
-0.903299
-0.90805
-0.90913
-0.906529
-0.900248
-0.890307
-0.876734
-0.859576
-0.838889
-0.814746
-0.787232
-0.756442
-0.722487
-0.685488
-0.645576
-0.602895
-0.557597
-0.509844
-0.459807
-0.407665
-0.353602
-0.297813
-0.240492
-0.181844
-0.122073
-0.0613881
0
0
0.0570523
0.113879
0.170257
0.225963
0.280777
0.334483
0.386869
0.437728
0.48686
0.53407
0.579173
0.62199
0.662352
0.700101
0.735087
0.767172
0.796229
0.822144
0.844815
0.864152
0.880079
0.892533
0.901465
0.90684
0.908637
0.906848
0.901481
0.892557
0.880112
0.864194
0.844867
0.822207
0.796304
0.767259
0.735189
0.700219
0.662488
0.622146
0.579351
0.534273
0.48709
0.43799
0.387165
0.334818
0.281155
0.226389
0.170737
0.11442
0.0576589
0.000680556
-0.0562897
-0.113026
-0.169303
-0.224898
-0.279589
-0.333159
-0.385395
-0.43609
-0.48504
-0.532052
-0.576936
-0.619513
-0.659613
-0.697075
-0.731747
-0.763488
-0.792172
-0.817679
-0.839905
-0.858759
-0.874161
-0.886044
-0.894357
-0.899061
-0.90013
-0.897555
-0.891337
-0.881493
-0.868055
-0.851066
-0.830585
-0.806681
-0.779439
-0.748954
-0.715335
-0.678702
-0.639185
-0.596927
-0.552077
-0.504797
-0.455255
-0.403629
-0.350102
-0.294864
-0.238111
-0.180044
-0.120864
-0.0607803
0
0
0.0562567
0.112291
0.167883
0.222812
0.276862
0.329819
0.381474
0.431624
0.480071
0.526623
0.571097
0.613317
0.653117
0.690339
0.724837
0.756475
0.785127
0.810681
0.833035
0.852103
0.867808
0.880088
0.888896
0.894196
0.895967
0.894204
0.888911
0.880112
0.86784
0.852144
0.833087
0.810743
0.7852
0.756561
0.724938
0.690455
0.653251
0.613471
0.571273
0.526823
0.480298
0.431882
0.381767
0.330149
0.277235
0.223233
0.168357
0.112824
0.056855
0.000671099
-0.0555048
-0.11145
-0.166942
-0.221762
-0.27569
-0.328513
-0.380022
-0.430009
-0.478277
-0.524633
-0.568891
-0.610875
-0.650416
-0.687355
-0.721543
-0.752843
-0.781126
-0.806277
-0.828194
-0.846785
-0.861972
-0.873689
-0.881886
-0.886524
-0.887579
-0.885039
-0.878908
-0.869202
-0.855951
-0.839199
-0.819003
-0.795433
-0.76857
-0.738511
-0.705361
-0.669238
-0.630273
-0.588603
-0.544379
-0.497758
-0.448907
-0.398001
-0.34522
-0.290753
-0.234791
-0.177533
-0.119179
-0.0599328
0
0
0.0552393
0.110261
0.164847
0.218782
0.271854
0.323854
0.374575
0.423818
0.471388
0.517099
0.560768
0.602225
0.641304
0.677854
0.711728
0.742793
0.770927
0.796019
0.817969
0.836692
0.852113
0.864171
0.872819
0.878023
0.879763
0.878031
0.872835
0.864194
0.852144
0.836732
0.818019
0.796079
0.770999
0.742878
0.711826
0.677968
0.641436
0.602375
0.56094
0.517295
0.471612
0.424071
0.374862
0.324178
0.272221
0.219195
0.165312
0.110784
0.0558267
0.000658998
-0.0545009
-0.109434
-0.163923
-0.217751
-0.270704
-0.322572
-0.373148
-0.422232
-0.469627
-0.515144
-0.558602
-0.599827
-0.638652
-0.674923
-0.708493
-0.739226
-0.766998
-0.791695
-0.813215
-0.83147
-0.846382
-0.857888
-0.865936
-0.870491
-0.871526
-0.869032
-0.863012
-0.853481
-0.84047
-0.824021
-0.80419
-0.781046
-0.75467
-0.725154
-0.692603
-0.657134
-0.618873
-0.577957
-0.534533
-0.488755
-0.440788
-0.390802
-0.338976
-0.285494
-0.230545
-0.174322
-0.117023
-0.0588488
0
0
0.0540039
0.107795
0.16116
0.213889
0.265775
0.316611
0.366198
0.41434
0.460846
0.505534
0.548227
0.588756
0.626962
0.662694
0.69581
0.726181
0.753686
0.778216
0.799676
0.81798
0.833056
0.844844
0.853299
0.858387
0.860087
0.858394
0.853314
0.844867
0.833087
0.818019
0.799725
0.778276
0.753756
0.726264
0.695907
0.662805
0.627091
0.588904
0.548395
0.505726
0.461064
0.414587
0.366478
0.316928
0.266133
0.214293
0.161615
0.108306
0.0545782
0.000644303
-0.053282
-0.106987
-0.160257
-0.212881
-0.26465
-0.315358
-0.364803
-0.412789
-0.459124
-0.503623
-0.546109
-0.586412
-0.624369
-0.659829
-0.692648
-0.722694
-0.749845
-0.773989
-0.795028
-0.812874
-0.827453
-0.838701
-0.84657
-0.851022
-0.852035
-0.849597
-0.843711
-0.834394
-0.821673
-0.805592
-0.786205
-0.763578
-0.737792
-0.708936
-0.677113
-0.642438
-0.605032
-0.565032
-0.522578
-0.477824
-0.43093
-0.382062
-0.331395
-0.279109
-0.225389
-0.170423
-0.114406
-0.0575327
0
0
0.0525555
0.104904
0.156838
0.208153
0.258646
0.308119
0.356376
0.403227
0.448486
0.491975
0.533523
0.572965
0.610146
0.64492
0.677148
0.706704
0.733471
0.757344
0.778228
0.796041
0.810712
0.822185
0.830413
0.835364
0.837019
0.835371
0.830427
0.822207
0.810743
0.796079
0.778276
0.757402
0.73354
0.706785
0.677242
0.645028
0.610272
0.573109
0.533687
0.492162
0.448698
0.403468
0.356649
0.308428
0.258995
0.208546
0.15728
0.105401
0.0531145