# vtk DataFile Version 3.0
Scalar Field Data
ASCII
DATASET STRUCTURED_POINTS
DIMENSIONS 128 128 1
ORIGIN 0 0 0
SPACING 0.0078125 0.0078125 1
POINT_DATA 16384
SCALARS scalars double
LOOKUP_TABLE default
0
0
0
0
0
0
0
0
0
0
0
0
0
0
0
0
0
0
0
0
0
0
0
0
0
0
0
0
0
0
0
0
0
0
0
0
0
0
0
0
0
0
0
0
0
0
0
0
0
0
0
0
0
0
0
0
0
0
0
0
0
0
0
0
0
0
0
0
0
0
0
0
0
0
0
0
0
0
0
0
0
0
0
0
0
0
0
0
0
0
0
0
0
0
0
0
0
0
0
0
0
0
0
0
0
0
0
0
0
0
0
0
0
0
0
0
0
0
0
0
0
0
0
0
0
0
0
0
0
-0.00240659
-0.00480738
-0.00719659
-0.00956847
-0.0119173
-0.0142374
-0.0165233
-0.0187694
-0.0209702
-0.0231206
-0.0252152
-0.0272492
-0.0292175
-0.0311155
-0.0329385
-0.0346822
-0.0363424
-0.0379151
-0.0393965
-0.040783
-0.0420713
-0.0432583
-0.0443412
-0.0453172
-0.0461842
-0.0469399
-0.0475827
-0.0481109
-0.0485232
-0.0488188
-0.0489968
-0.0490568
-0.0489988
-0.0488228
-0.0485293
-0.0481191
-0.047593
-0.0469523
-0.0461987
-0.045334
-0.0443601
-0.0432796
-0.042095
-0.0408091
-0.039425
-0.0379462
-0.0363762
-0.0347188
-0.0329779
-0.0311578
-0.0292629
-0.0272978
-0.0252672
-0.023176
-0.0210293
-0.0188322
-0.0165901
-0.0143084
-0.0119926
-0.0096483
-0.00728117
-0.00489694
-0.00250136
-0.000100248
0.0023006
0.00469537
0.00707827
0.00944353
0.0117854
0.0140982
0.0163764
0.0186144
0.0208068
0.0229483
0.0250336
0.0270578
0.0290158
0.030903
0.0327147
0.0344464
0.0360941
0.0376536
0.0391211
0.0404931
0.0417662
0.0429371
0.0440031
0.0449614
0.0458098
0.046546
0.0471682
0.0476748
0.0480645
0.0483362
0.0484892
0.048523
0.0484373
0.0482323
0.0479084
0.0474661
0.0469064
0.0462304
0.0454397
0.044536
0.0435212
0.0423976
0.0411678
0.0398345
0.0384006
0.0368695
0.0352445
0.0335293
0.0317277
0.029844
0.0278822
0.0258467
0.0237423
0.0215736
0.0193454
0.0170628
0.0147309
0.0123549
0.00993997
0.0074916
0.00501517
0.00251614
0
0
-0.00480738
-0.00960318
-0.0143759
-0.0191139
-0.0238059
-0.0284406
-0.0330068
-0.0374935
-0.0418899
-0.0461855
-0.0503698
-0.0544328
-0.0583647
-0.062156
-0.0657977
-0.069281
-0.0725973
-0.0757389
-0.0786981
-0.0814678
-0.0840413
-0.0864125
-0.0885755
-0.0905253
-0.0922572
-0.0937668
-0.0950508
-0.0961059
-0.0969296
-0.0975199
-0.0978755
-0.0979955
-0.0978796
-0.0975281
-0.0969418
-0.0961222
-0.0950713
-0.0937916
-0.0922862
-0.0905588
-0.0886135
-0.086455
-0.0840885
-0.0815198
-0.0787551
-0.0758011
-0.0726648
-0.0693539
-0.0658764
-0.0622406
-0.0584554
-0.0545299
-0.0504735
-0.0462962
-0.0420079
-0.0376191
-0.0331403
-0.0285824
-0.0239563
-0.0192734
-0.0145448
-0.00978208
-0.0049967
-0.000200255
0.00459566
0.00937944
0.0141395
0.0188643
0.0235424
0.0281625
0.0327134
0.037184
0.0415635
0.0458413
0.050007
0.0540504
0.0579618
0.0617315
0.0653505
0.0688099
0.0721013
0.0752165
0.0781481
0.0808887
0.0834317
0.0857708
0.0879002
0.0898146
0.0915092
0.0929799
0.0942228
0.0952348
0.0960132
0.096556
0.0968616
0.096929
0.096758
0.0963485
0.0957014
0.0948178
0.0936997
0.0923495
0.09077
0.0889647
0.0869376
0.0846932
0.0822365
0.079573
0.0767088
0.0736501
0.070404
0.0669778
0.0633791
0.0596161
0.0556972
0.0516312
0.0474274
0.0430952
0.0386443
0.0340846
0.0294264
0.02468
0.019856
0.0149652
0.0100183
0.00502622
0
0
-0.00719659
-0.0143759
-0.0215205
-0.0286133
-0.0356372
-0.0425753
-0.0494108
-0.0561274
-0.0627087
-0.0691391
-0.075403
-0.0814852
-0.0873713
-0.0930469
-0.0984985
-0.103713
-0.108677
-0.11338
-0.11781
-0.121956
-0.125809
-0.129358
-0.132597
-0.135515
-0.138108
-0.140368
-0.14229
-0.143869
-0.145103
-0.145986
-0.146519
-0.146698
-0.146525
-0.145998
-0.145121
-0.143894
-0.142321
-0.140405
-0.138151
-0.135565
-0.132653
-0.129422
-0.12588
-0.122034
-0.117896
-0.113473
-0.108778
-0.103822
-0.0986162
-0.0931735
-0.0875071
-0.0816306
-0.0755583
-0.0693049
-0.0628854
-0.0563153
-0.0496106
-0.0427875
-0.0358624
-0.028852
-0.0217734
-0.0146437
-0.00748002
-0.000299784
0.00687965
0.0140409
0.0211667
0.0282397
0.0352428
0.042159
0.0489716
0.0556641
0.0622202
0.068624
0.0748599
0.0809129
0.0867681
0.0924114
0.097829
0.103008
0.107935
0.112598
0.116987
0.12109
0.124896
0.128398
0.131586
0.134451
0.136988
0.13919
0.14105
0.142565
0.143731
0.144543
0.145001
0.145102
0.144846
0.144233
0.143264
0.141941
0.140267
0.138246
0.135882
0.133179
0.130145
0.126785
0.123107
0.11912
0.114832
0.110253
0.105394
0.100265
0.0948778
0.0892446
0.083378
0.0772914
0.0709984
0.0645131
0.05785
0.0510242
0.0440509
0.0369456
0.0297242
0.0224027
0.0149972
0.00752419
0
0
-0.00956847
-0.0191139
-0.0286133
-0.0380438
-0.0473827
-0.0566074
-0.0656958
-0.0746261
-0.0833766
-0.0919263
-0.100255
-0.108341
-0.116167
-0.123714
-0.130962
-0.137895
-0.144496
-0.150749
-0.156639
-0.162151
-0.167274
-0.171993
-0.176298
-0.180179
-0.183626
-0.186631
-0.189186
-0.191287
-0.192926
-0.194101
-0.194809
-0.195048
-0.194817
-0.194117
-0.19295
-0.191319
-0.189227
-0.18668
-0.183684
-0.180246
-0.176374
-0.172078
-0.167367
-0.162255
-0.156752
-0.150872
-0.14463
-0.13804
-0.131119
-0.123882
-0.116348
-0.108535
-0.100461
-0.0921467
-0.0836114
-0.074876
-0.0659615
-0.0568896
-0.047682
-0.0383612
-0.0289496
-0.01947
-0.00994532
-0.000398594
0.00914707
0.0186686
0.0281429
0.037547
0.0468582
0.0560539
0.0651118
0.07401
0.0827269
0.0912413
0.0995325
0.10758
0.115366
0.122869
0.130072
0.136957
0.143508
0.149709
0.155544
0.160999
0.16606
0.170716
0.174954
0.178764
0.182137
0.185065
0.187538
0.189553
0.191102
0.192182
0.192791
0.192925
0.192584
0.191769
0.190481
0.188723
0.186497
0.18381
0.180666
0.177073
0.173038
0.168571
0.163681
0.15838
0.152679
0.146591
0.14013
0.133311
0.126148
0.118658
0.110858
0.102765
0.0943983
0.0857755
0.0769165
0.067841
0.0585694
0.0491223
0.0395208
0.0297862
0.0199401
0.010004
0
0
-0.0119173
-0.0238059
-0.0356372
-0.0473827
-0.059014
-0.0705032
-0.0818226
-0.092945
-0.103844
-0.114492
-0.124865
-0.134937
-0.144684
-0.154083
-0.16311
-0.171745
-0.179966
-0.187754
-0.19509
-0.201956
-0.208335
-0.214213
-0.219575
-0.224409
-0.228702
-0.232445
-0.235627
-0.238243
-0.240285
-0.241748
-0.24263
-0.242927
-0.24264
-0.241768
-0.240315
-0.238283
-0.235678
-0.232506
-0.228774
-0.224492
-0.219669
-0.214319
-0.208452
-0.202085
-0.195231
-0.187908
-0.180133
-0.171926
-0.163305
-0.154292
-0.144909
-0.135178
-0.125122
-0.114767
-0.104136
-0.0932563
-0.0821535
-0.0708546
-0.0593869
-0.047778
-0.0360561
-0.0242494
-0.0123867
-0.000496451
0.0113924
0.0232513
0.0350513
0.0467639
0.0583608
0.0698138
0.0810953
0.0921778
0.103034
0.113639
0.123965
0.133989
0.143685
0.15303
0.162001
0.170577
0.178736
0.186459
0.193726
0.20052
0.206824
0.212623
0.217901
0.222647
0.226848
0.230494
0.233575
0.236083
0.238013
0.239359
0.240116
0.240283
0.239859
0.238844
0.23724
0.23505
0.232278
0.228931
0.225015
0.22054
0.215515
0.209951
0.203861
0.197259
0.190158
0.182576
0.174529
0.166035
0.157114
0.147786
0.138071
0.127992
0.117571
0.106831
0.0957977
0.0844944
0.0729468
0.0611807
0.0492223
0.0370981
0.0248349
0.0124598
0
0
-0.0142374
-0.0284406
-0.0425753
-0.0566074
-0.0705032
-0.0842292
-0.0977524
-0.11104
-0.12406
-0.136782
-0.149174
-0.161207
-0.172852
-0.18408
-0.194865
-0.205181
-0.215003
-0.224307
-0.233071
-0.241274
-0.248895
-0.255918
-0.262324
-0.268098
-0.273227
-0.277698
-0.281501
-0.284626
-0.287065
-0.288813
-0.289867
-0.290222
-0.289879
-0.288838
-0.287101
-0.284674
-0.281562
-0.277772
-0.273313
-0.268197
-0.262436
-0.256044
-0.249035
-0.241428
-0.23324
-0.224491
-0.215203
-0.205397
-0.195098
-0.184331
-0.173121
-0.161495
-0.149482
-0.13711
-0.12441
-0.111412
-0.0981477
-0.0846491
-0.0709487
-0.0570797
-0.0430757
-0.0289705
-0.0147982
-0.00059312
0.0136104
0.0277779
0.0418752
0.0558682
0.0697228
0.0834056
0.0968834
0.110124
0.123094
0.135763
0.1481
0.160075
0.171659
0.182823
0.193541
0.203786
0.213534
0.22276
0.231442
0.239559
0.24709
0.254017
0.260324
0.265993
0.271012
0.275368
0.279049
0.282046
0.284351
0.285958
0.286864
0.287063
0.286557
0.285344
0.283427
0.280811
0.277499
0.273501
0.268823
0.263476
0.257473
0.250826
0.24355
0.235662
0.227179
0.218121
0.208507
0.19836
0.187702
0.176558
0.164952
0.15291
0.14046
0.12763
0.114448
0.100944
0.0871485
0.0730917
0.0588052
0.0443205
0.0296699
0.0148856
0
0
-0.0165233
-0.0330068
-0.0494108
-0.0656958
-0.0818226
-0.0977524
-0.113447
-0.128868
-0.143979
-0.158743
-0.173124
-0.187089
-0.200604
-0.213635
-0.226151
-0.238124
-0.249522
-0.26032
-0.270491
-0.280011
-0.288856
-0.297006
-0.30444
-0.311142
-0.317094
-0.322283
-0.326696
-0.330323
-0.333154
-0.335183
-0.336405
-0.336818
-0.336419
-0.335211
-0.333196
-0.330379
-0.326767
-0.322368
-0.317194
-0.311257
-0.304571
-0.297152
-0.289018
-0.28019
-0.270687
-0.260534
-0.249754
-0.238374
-0.226422
-0.213925
-0.200915
-0.187423
-0.173481
-0.159123
-0.144384
-0.129299
-0.113906
-0.0982397
-0.0823397
-0.066244
-0.0499916
-0.0336218
-0.0171741
-0.000688369
0.0157955
0.0322377
0.0485984
0.0648379
0.0809169
0.0967965
0.112438
0.127804
0.142857
0.15756
0.171877
0.185775
0.199219
0.212176
0.224614
0.236504
0.247817
0.258524
0.2686
0.27802
0.286761
0.2948
0.302119
0.308699
0.314524
0.319578
0.32385
0.327329
0.330004
0.33187
0.33292
0.333152
0.332564
0.331156
0.328932
0.325895
0.322053
0.317412
0.311983
0.305778
0.29881
0.291096
0.282653
0.273498
0.263653
0.253141
0.241984
0.230207
0.217838
0.204904
0.191435
0.17746
0.163011
0.148121
0.132823
0.117151
0.10114
0.0848268
0.0682464
0.0514363
0.0344334
0.0172755
0
0
-0.0187694
-0.0374935
-0.0561274
-0.0746261
-0.092945
-0.11104
-0.128868
-0.146385
-0.16355
-0.180321
-0.196658
-0.212521
-0.227872
-0.242675
-0.256893
-0.270492
-0.28344
-0.295706
-0.30726
-0.318073
-0.328121
-0.337379
-0.345824
-0.353436
-0.360198
-0.366092
-0.371105
-0.375224
-0.37844
-0.380745
-0.382134
-0.382602
-0.38215
-0.380777
-0.378488
-0.375288
-0.371185
-0.366189
-0.360311
-0.353567
-0.345972
-0.337545
-0.328305
-0.318276
-0.307482
-0.295949
-0.283704
-0.270777
-0.2572
-0.243005
-0.228226
-0.2129
-0.197063
-0.180753
-0.164011
-0.146876
-0.129389
-0.111594
-0.0935323
-0.0752488
-0.0567871
-0.0381921
-0.0195087
-0.000781971
0.0179426
0.0366198
0.0552044
0.0736514
0.0919161
0.109954
0.127722
0.145177
0.162276
0.178977
0.195241
0.211028
0.226299
0.241017
0.255147
0.268653
0.281503
0.293666
0.305112
0.315812
0.325741
0.334873
0.343187
0.350661
0.357278
0.363019
0.367872
0.371823
0.374862
0.376981
0.378175
0.378438
0.37777
0.376171
0.373645
0.370195
0.36583
0.360558
0.354391
0.347343
0.339428
0.330666
0.321074
0.310675
0.299492
0.287551
0.274877
0.2615
0.24745
0.232758
0.217457
0.201583
0.18517
0.168256
0.150878
0.133076
0.114889
0.0963575
0.0775234
0.0584281
0.0391141
0.0196237
0
0
-0.0209702
-0.0418899
-0.0627087
-0.0833766
-0.103844
-0.12406
-0.143979
-0.16355
-0.182728
-0.201465
-0.219717
-0.237441
-0.254592
-0.27113
-0.287016
-0.30221
-0.316676
-0.33038
-0.343288
-0.35537
-0.366596
-0.376939
-0.386374
-0.39488
-0.402434
-0.409019
-0.41462
-0.419222
-0.422816
-0.425391
-0.426942
-0.427465
-0.42696
-0.425426
-0.422869
-0.419294
-0.41471
-0.409127
-0.402561
-0.395025
-0.38654
-0.377124
-0.366802
-0.355597
-0.343537
-0.330651
-0.316971
-0.302528
-0.287359
-0.271499
-0.254988
-0.237864
-0.22017
-0.201948
-0.183242
-0.164098
-0.144561
-0.124679
-0.1045
-0.0840723
-0.0634459
-0.0426705
-0.0217962
-0.000873701
0.0200465
0.0409138
0.0616776
0.0822876
0.102694
0.122847
0.142699
0.1622
0.181304
0.199964
0.218135
0.235773
0.252834
0.269278
0.285065
0.300155
0.314512
0.328101
0.340889
0.352844
0.363936
0.37414
0.383428
0.391779
0.399171
0.405586
0.411008
0.415422
0.418818
0.421185
0.422519
0.422813
0.422067
0.42028
0.417458
0.413604
0.408726
0.402836
0.395946
0.388071
0.379229
0.369439
0.358723
0.347104
0.33461
0.321268
0.307108
0.292163
0.276465
0.26005
0.242956
0.22522
0.206883
0.187985
0.16857
0.14868
0.12836
0.107656
0.0866136
0.0652793
0.0437005
0.0219248
0
0
-0.0231206
-0.0461855
-0.0691391
-0.0919263
-0.114492
-0.136782
-0.158743
-0.180321
-0.201465
-0.222124
-0.242248
-0.261788
-0.280699
-0.298933
-0.316447
-0.333199
-0.349149
-0.364258
-0.37849
-0.391811
-0.404188
-0.415591
-0.425994
-0.435372
-0.443701
-0.450962
-0.457137
-0.462211
-0.466172
-0.469012
-0.470722
-0.471299
-0.470741
-0.469051
-0.466231
-0.46229
-0.457235
-0.451081
-0.443841
-0.435533
-0.426177
-0.415796
-0.404415
-0.392061
-0.378764
-0.364557
-0.349474
-0.33355
-0.316825
-0.29934
-0.281135
-0.262256
-0.242747
-0.222657
-0.202033
-0.180925
-0.159385
-0.137464
-0.115216
-0.0926934
-0.0699519
-0.0470461
-0.0240313
-0.000963341
0.0221021
0.0451091
0.0680021
0.0907256
0.113224
0.135444
0.157331
0.178832
0.199895
0.220469
0.240503
0.259949
0.278761
0.296891
0.314296
0.330934
0.346763
0.361745
0.375844
0.389025
0.401255
0.412505
0.422746
0.431953
0.440103
0.447176
0.453154
0.458021
0.461765
0.464375
0.465845
0.466169
0.465347
0.463377
0.460265
0.456016
0.450638
0.444144
0.436548
0.427866
0.418116
0.407322
0.395507
0.382698
0.368922
0.354212
0.3386
0.322122
0.304815
0.286717
0.267869
0.248315
0.228097
0.207262
0.185855
0.163926
0.141523
0.118695
0.0954952
0.0719732
0.0481817
0.024173
0
0
-0.0252152
-0.0503698
-0.075403
-0.100255
-0.124865
-0.149174
-0.173124
-0.196658
-0.219717
-0.242248
-0.264195
-0.285506
-0.306129
-0.326015
-0.345116
-0.363386
-0.380781
-0.397259
-0.41278
-0.427308
-0.440806
-0.453243
-0.464589
-0.474816
-0.483899
-0.491818
-0.498552
-0.504086
-0.508407
-0.511503
-0.513368
-0.513998
-0.51339
-0.511546
-0.508471
-0.504172
-0.49866
-0.491948
-0.484052
-0.474991
-0.464788
-0.453466
-0.441054
-0.427581
-0.41308
-0.397585
-0.381135
-0.363769
-0.345529
-0.326459
-0.306605
-0.286016
-0.26474
-0.242829
-0.220336
-0.197317
-0.173825
-0.149918
-0.125654
-0.101091
-0.0762895
-0.0513084
-0.0262086
-0.00105068
0.0241044
0.0491959
0.0741629
0.0989451
0.123482
0.147715
0.171585
0.195034
0.218005
0.240442
0.262292
0.2835
0.304016
0.323788
0.34277
0.360915
0.378179
0.394519
0.409895
0.42427
0.437608
0.449877
0.461046
0.471087
0.479976
0.487689
0.494209
0.499517
0.503599
0.506446
0.508049
0.508403
0.507506
0.505358
0.501964
0.49733
0.491465
0.484383
0.476098
0.466629
0.455997
0.444225
0.431339
0.417369
0.402346
0.386303
0.369277
0.351306
0.33243
0.312693
0.292138
0.270811
0.248762
0.226039
0.202693
0.178777
0.154344
0.129449
0.104147
0.0784938
0.0525468
0.026363
0
0
-0.0272492
-0.0544328
-0.0814852
-0.108341
-0.134937
-0.161207
-0.187089
-0.212521
-0.237441
-0.261788
-0.285506
-0.308536
-0.330823
-0.352313
-0.372955
-0.392698
-0.411496
-0.429304
-0.446077
-0.461776
-0.476363
-0.489803
-0.502064
-0.513116
-0.522932
-0.531489
-0.538767
-0.544748
-0.549417
-0.552763
-0.554778
-0.555458
-0.554801
-0.552809
-0.549486
-0.54484
-0.538884
-0.53163
-0.523097
-0.513306
-0.502279
-0.490044
-0.476631
-0.462071
-0.4464
-0.429656
-0.411879
-0.393112
-0.373401
-0.352793
-0.331337
-0.309087
-0.286095
-0.262416
-0.23811
-0.213233
-0.187846
-0.162011
-0.13579
-0.109246
-0.0824433
-0.0554472
-0.0283227
-0.0011355
0.0260487
0.0531641
0.0801451
0.106926
0.133443
0.15963
0.185426
0.210766
0.23559
0.259837
0.283449
0.306368
0.328538
0.349906
0.370419
0.390028
0.408684
0.426342
0.442958
0.458493
0.472907
0.486166
0.498235
0.509087
0.518692
0.527028
0.534073
0.539809
0.544221
0.547298
0.54903
0.549413
0.548443
0.546122
0.542454
0.537446
0.531108
0.523455
0.514502
0.504269
0.492779
0.480057
0.466132
0.451035
0.4348
0.417463
0.399064
0.379643
0.359245
0.337915
0.315702
0.292656
0.268828
0.244272
0.219043
0.193198
0.166794
0.139891
0.112548
0.0848254
0.0567854
0.0284896
0
0
-0.0292175
-0.0583647
-0.0873713
-0.116167
-0.144684
-0.172852
-0.200604
-0.227872
-0.254592
-0.280699
-0.306129
-0.330823
-0.35472
-0.377762
-0.399895
-0.421065
-0.441221
-0.460314
-0.478299
-0.495132
-0.510773
-0.525184
-0.53833
-0.55018
-0.560706
-0.569881
-0.577685
-0.584097
-0.589103
-0.592691
-0.594852
-0.595582
-0.594877
-0.592741
-0.589178
-0.584197
-0.577809
-0.570032
-0.560883
-0.550384
-0.538561
-0.525442
-0.51106
-0.495449
-0.478646
-0.460692
-0.441631
-0.421509
-0.400373
-0.378276
-0.355271
-0.331413
-0.30676
-0.281372
-0.255309
-0.228636
-0.201415
-0.173714
-0.145598
-0.117137
-0.0883986
-0.0594525
-0.0303687
-0.0012176
0.0279302
0.0570043
0.0859342
0.11465
0.143082
0.171161
0.19882
0.22599
0.252608
0.278606
0.303924
0.328498
0.35227
0.375181
0.397176
0.418201
0.438205
0.457138
0.474955
0.491612
0.507067
0.521283
0.534225
0.54586
0.556159
0.565097
0.572651
0.578802
0.583533
0.586832
0.588689
0.589099
0.588059
0.585571
0.581638
0.576268
0.569473
0.561266
0.551666
0.540694
0.528374
0.514734
0.499803
0.483615
0.466208
0.447618
0.42789
0.407066
0.385195
0.362324
0.338507
0.313796
0.288246
0.261917
0.234866
0.207153
0.178842
0.149996
0.120677
0.0909526
0.0608872
0.0305475
0
0
-0.0311155
-0.062156
-0.0930469
-0.123714
-0.154083
-0.18408
-0.213635
-0.242675
-0.27113
-0.298933
-0.326015
-0.352313
-0.377762
-0.402302
-0.425872
-0.448417
-0.469882
-0.490216
-0.509369
-0.527296
-0.543953
-0.5593
-0.5733
-0.58592
-0.597129
-0.606901
-0.615211
-0.62204
-0.627371
-0.631192
-0.633494
-0.634271
-0.63352
-0.631245
-0.627451
-0.622146
-0.615344
-0.607061
-0.597318
-0.586137
-0.573546
-0.559575
-0.544259
-0.527633
-0.509739
-0.490619
-0.470319
-0.44889
-0.426382
-0.402849
-0.37835
-0.352942
-0.326688
-0.29965
-0.271894
-0.243488
-0.214499
-0.184998
-0.155057
-0.124746
-0.0941411
-0.0633146
-0.0323415
-0.0012968
0.0297445
0.0607072
0.0915164
0.122097
0.152376
0.18228
0.211735
0.240671
0.269017
0.296705
0.323667
0.349837
0.375153
0.399553
0.422977
0.445367
0.46667
0.486834
0.505808
0.523547
0.540006
0.555146
0.568928
0.581319
0.592287
0.601806
0.609851
0.616401
0.621439
0.624952
0.62693
0.627367
0.626259
0.623609
0.619421
0.613702
0.606465
0.597726
0.587502
0.575818
0.562697
0.548171
0.53227
0.515031
0.496492
0.476695
0.455685
0.433509
0.410217
0.385861
0.360496
0.33418
0.306971
0.278931
0.250122
0.22061
0.19046
0.159739
0.128517
0.0968609
0.0648424
0.0325318
0
0
-0.0329385
-0.0657977
-0.0984985
-0.130962
-0.16311
-0.194865
-0.226151
-0.256893
-0.287016
-0.316447
-0.345116
-0.372955
-0.399895
-0.425872
-0.450824
-0.47469
-0.497412
-0.518937
-0.539213
-0.55819
-0.575823
-0.592069
-0.606889
-0.620249
-0.632115
-0.642459
-0.651256
-0.658485
-0.664129
-0.668174
-0.67061
-0.671432
-0.670638
-0.668229
-0.664213
-0.658597
-0.651397
-0.642629
-0.632314
-0.620478
-0.60715
-0.59236
-0.576146
-0.558547
-0.539604
-0.519364
-0.497875
-0.47519
-0.451363
-0.426452
-0.400517
-0.373621
-0.345828
-0.317206
-0.287825
-0.257754
-0.227067
-0.195837
-0.164141
-0.132055
-0.0996568
-0.0670243
-0.0342365
-0.00137289
0.0314871
0.0642639
0.0968781
0.129251
0.161304
0.192959
0.22414
0.254771
0.284778
0.314088
0.34263
0.370334
0.397133
0.422962
0.447758
0.471461
0.494012
0.515357
0.535443
0.554221
0.571644
0.587671
0.602261
0.615378
0.626989
0.637065
0.645581
0.652515
0.657848
0.661567
0.663661
0.664123
0.662951
0.660146
0.655712
0.649658
0.641997
0.632746
0.621924
0.609554
0.595665
0.580287
0.563455
0.545206
0.525581
0.504625
0.482383
0.458908
0.434251
0.408468
0.381617
0.353759
0.324956
0.295273
0.264777
0.233535
0.201619
0.169098
0.136046
0.102536
0.0686415
0.0344378
0
0
-0.0346822
-0.069281
-0.103713
-0.137895
-0.171745
-0.205181
-0.238124
-0.270492
-0.30221
-0.333199
-0.363386
-0.392698
-0.421065
-0.448417
-0.47469
-0.499819
-0.523745
-0.546409
-0.567758
-0.587739
-0.606306
-0.623412
-0.639017
-0.653084
-0.665578
-0.676469
-0.685732
-0.693344
-0.699287
-0.703546
-0.706111
-0.706977
-0.70614
-0.703605
-0.699375
-0.693462
-0.685881
-0.676648
-0.665788
-0.653325
-0.639291
-0.623719
-0.606647
-0.588115
-0.56817
-0.546858
-0.524232
-0.500346
-0.475258
-0.449028
-0.42172
-0.3934
-0.364136
-0.333999
-0.303062
-0.271399
-0.239087
-0.206205
-0.172831
-0.139046
-0.104933
-0.0705725
-0.0360491
-0.0014457
0.0331538
0.0676658
0.102007
0.136093
0.169843
0.203174
0.236006
0.268258
0.299854
0.330715
0.360768
0.389939
0.418157
0.445353
0.471462
0.496419
0.520164
0.542639
0.563788
0.58356
0.601906
0.618781
0.634143
0.647955
0.66018
0.67079
0.679757
0.687058
0.692674
0.696589
0.698794
0.699281
0.698047
0.695093
0.690424
0.68405
0.675984
0.666242
0.654847
0.641823
0.627199
0.611007
0.593283
0.574068
0.553404
0.531338
0.50792
0.483202
0.457239
0.430091
0.401819
0.372486
0.342158
0.310904
0.278793
0.245898
0.212292
0.17805
0.143248
0.107964
0.0722752
0.0362609
0
0
-0.0363424
-0.0725973
-0.108677
-0.144496
-0.179966
-0.215003
-0.249522
-0.28344
-0.316676
-0.349149
-0.380781
-0.411496
-0.441221
-0.469882
-0.497412
-0.523745
-0.548816
-0.572565
-0.594936
-0.615874
-0.635329
-0.653254
-0.669606
-0.684346
-0.697438
-0.708851
-0.718557
-0.726534
-0.732761
-0.737224
-0.739912
-0.740819
-0.739943
-0.737285
-0.732853
-0.726657
-0.718713
-0.709039
-0.697658
-0.684599
-0.669893
-0.653576
-0.635686
-0.616268
-0.595367
-0.573036
-0.549326
-0.524297
-0.498008
-0.470522
-0.441907
-0.412231
-0.381567
-0.349987
-0.317569
-0.284391
-0.250532
-0.216076
-0.181104
-0.145702
-0.109956
-0.0739509
-0.0377748
-0.00151505
0.0347407
0.0709047
0.106889
0.142608
0.177973
0.212899
0.247303
0.281099
0.314207
0.346546
0.378037
0.408604
0.438173
0.466671
0.49403
0.520182
0.545064
0.568614
0.590776
0.611494
0.630718
0.648401
0.664499
0.678971
0.691782
0.7029
0.712296
0.719946
0.725831
0.729934
0.732244
0.732754
0.731461
0.728366
0.723473
0.716794
0.708342
0.698134
0.686193
0.672546
0.657222
0.640255
0.621683
0.601548
0.579895
0.556773
0.532233
0.506332
0.479127
0.450679
0.421054
0.390316
0.358537
0.325787
0.292139
0.257669
0.222454
0.186573
0.150105
0.113132
0.0757349
0.0379966
0
0
-0.0379151
-0.0757389
-0.11338
-0.150749
-0.187754
-0.224307
-0.26032
-0.295706
-0.33038
-0.364258
-0.397259
-0.429304
-0.460314
-0.490216
-0.518937
-0.546409
-0.572565
-0.597342
-0.620681
-0.642525
-0.662822
-0.681523
-0.698583
-0.713961
-0.727619
-0.739526
-0.749652
-0.757974
-0.76447
-0.769126
-0.771931
-0.772877
-0.771963
-0.769191
-0.764567
-0.758103
-0.749814
-0.739722
-0.727849
-0.714225
-0.698882
-0.681859
-0.663195
-0.642936
-0.621131
-0.597833
-0.573098
-0.546985
-0.519559
-0.490884
-0.46103
-0.43007
-0.398079
-0.365132
-0.331311
-0.296697
-0.261374
-0.225426
-0.188941
-0.152008
-0.114714
-0.0771512
-0.0394097
-0.00158078
0.0362439
0.0739728
0.111515
0.148779
0.185674
0.222112
0.258004
0.293263
0.327804
0.361542
0.394396
0.426286
0.457134
0.486866
0.515408
0.542692
0.56865
0.59322
0.616341
0.637956
0.658012
0.67646
0.693254
0.708353
0.721718
0.733317
0.743119
0.751101
0.75724
0.761521
0.763931
0.764463
0.763114
0.759885
0.754781
0.747812
0.738994
0.728345
0.715888
0.701649
0.685662
0.667961
0.648585
0.627579
0.604989
0.580866
0.555265
0.528242
0.49986
0.470182
0.439274
0.407207
0.374052
0.339885
0.304781
0.268819
0.23208
0.194647
0.156601
0.118028
0.0790122
0.0396409
0
0
-0.0393965
-0.0786981
-0.11781
-0.156639
-0.19509
-0.233071
-0.270491
-0.30726
-0.343288
-0.37849
-0.41278
-0.446077
-0.478299
-0.509369
-0.539213
-0.567758
-0.594936
-0.620681
-0.644932
-0.667629
-0.688719
-0.708151
-0.725877
-0.741856
-0.756048
-0.76842
-0.778942
-0.787588
-0.794339
-0.799177
-0.802091
-0.803074
-0.802124
-0.799244
-0.794439
-0.787723
-0.77911
-0.768623
-0.756287
-0.74213
-0.726188
-0.7085
-0.689107
-0.668056
-0.6454
-0.621191
-0.595489
-0.568357
-0.539858
-0.510063
-0.479043
-0.446874
-0.413632
-0.379399
-0.344256
-0.30829
-0.271586
-0.234234
-0.196324
-0.157947
-0.119196
-0.0801658
-0.0409496
-0.00164273
0.0376598
0.0768628
0.115871
0.154591
0.192928
0.23079
0.268085
0.304721
0.340611
0.375668
0.409805
0.442941
0.474995
0.505888
0.535546
0.563895
0.590868
0.616397
0.640421
0.662881
0.683721
0.702889
0.72034
0.736028
0.749916
0.761968
0.772153
0.780447
0.786826
0.791274
0.793778
0.794331
0.792929
0.789574
0.78427
0.77703
0.767867
0.756802
0.743858
0.729063
0.712451
0.694058
0.673926
0.652099
0.628626
0.603561
0.576959
0.548881
0.51939
0.488552
0.456437
0.423116
0.388666
0.353164
0.316689
0.279322
0.241148
0.202251
0.162719
0.122639
0.0820993
0.0411897
0
0
-0.040783
-0.0814678
-0.121956
-0.162151
-0.201956
-0.241274
-0.280011
-0.318073
-0.35537
-0.391811
-0.427308
-0.461776
-0.495132
-0.527296
-0.55819
-0.587739
-0.615874
-0.642525
-0.667629
-0.691126
-0.712958
-0.733073
-0.751424
-0.767964
-0.782656
-0.795464
-0.806356
-0.815307
-0.822295
-0.827303
-0.83032
-0.831337
-0.830354
-0.827372
-0.822399
-0.815446
-0.80653
-0.795674
-0.782903
-0.768249
-0.751746
-0.733434
-0.713359
-0.691568
-0.668114
-0.643053
-0.616447
-0.588359
-0.558858
-0.528014
-0.495903
-0.462601
-0.42819
-0.392751
-0.356372
-0.31914
-0.281144
-0.242478
-0.203233
-0.163506
-0.123391
-0.0829873
-0.042391
-0.00170076
0.038985
0.0795677
0.119949
0.160032
0.199718
0.238912
0.277519
0.315445
0.352598
0.388889
0.424228
0.45853
0.491711
0.523692
0.554393
0.58374
0.611662
0.63809
0.66296
0.68621
0.707783
0.727626
0.745691
0.761932
0.776308
0.788784
0.799328
0.807913
0.814517
0.819121
0.821714
0.822286
0.820835
0.817361
0.811871
0.804376
0.794891
0.783436
0.770036
0.754721
0.737525
0.718484
0.697643
0.675048
0.65075
0.624802
0.597264
0.568198
0.537669
0.505745
0.4725
0.438007
0.402345
0.365593
0.327834
0.289152
0.249635
0.209369
0.168446
0.126955
0.0849886
0.0426392
0
0
-0.0420713
-0.0840413
-0.125809
-0.167274
-0.208335
-0.248895
-0.288856
-0.328121
-0.366596
-0.404188
-0.440806
-0.476363
-0.510773
-0.543953
-0.575823
-0.606306
-0.635329
-0.662822
-0.688719
-0.712958
-0.73548
-0.756231
-0.77516
-0.792224
-0.80738
-0.820592
-0.831828
-0.841062
-0.84827
-0.853437
-0.856549
-0.857599
-0.856584
-0.853508
-0.848378
-0.841205
-0.832008
-0.820809
-0.807635
-0.792517
-0.775493
-0.756603
-0.735894
-0.713414
-0.689219
-0.663367
-0.63592
-0.606945
-0.576512
-0.544694
-0.511568
-0.477214
-0.441716
-0.405158
-0.36763
-0.329221
-0.290026
-0.250138
-0.209653
-0.168671
-0.12729
-0.085609
-0.0437303
-0.00175472
0.0402162
0.0820809
0.123738
0.165087
0.206027
0.246459
0.286285
0.32541
0.363736
0.401173
0.437628
0.473014
0.507244
0.540234
0.571906
0.60218
0.630984
0.658247
0.683902
0.707886
0.730141
0.750611
0.769246
0.786
0.800831
0.813701
0.824578
0.833434
0.840246
0.844996
0.847671
0.848261
0.846764
0.843181
0.837517
0.829785
0.82
0.808184
0.794361
0.778562
0.760822
0.74118
0.719681
0.696372
0.671306
0.644539
0.616131
0.586147
0.554653
0.521721
0.487426
0.451843
0.415054
0.377141
0.33819
0.298286
0.25752
0.215983
0.173767
0.130965
0.0876733
0.0439862
0
0
-0.0432583
-0.0864125
-0.129358
-0.171993
-0.214213
-0.255918
-0.297006
-0.337379
-0.376939
-0.415591
-0.453243
-0.489803
-0.525184
-0.5593
-0.592069
-0.623412
-0.653254
-0.681523
-0.708151
-0.733073
-0.756231
-0.777567
-0.797031
-0.814576
-0.830159
-0.843744
-0.855297
-0.864791
-0.872204
-0.877516
-0.880716
-0.881795
-0.880752
-0.877589
-0.872314
-0.864939
-0.855483
-0.843967
-0.830421
-0.814877
-0.797373
-0.77795
-0.756656
-0.733542
-0.708665
-0.682083
-0.653862
-0.62407
-0.592778
-0.560062
-0.526002
-0.490679
-0.454179
-0.41659
-0.378002
-0.33851
-0.298209
-0.257195
-0.215569
-0.17343
-0.130881
-0.0880246
-0.0449644
-0.00180449
0.0413506
0.0843965
0.127229
0.169744
0.211839
0.253412
0.294362
0.33459
0.373999
0.412491
0.449975
0.486359
0.521555
0.555476
0.588041
0.61917
0.648786
0.676818
0.703197
0.727858
0.750741
0.771789
0.790949
0.808176
0.823425
0.836658
0.847842
0.856948
0.863953
0.868837
0.871587
0.872194
0.870654
0.86697
0.861147
0.853196
0.843136
0.830985
0.816772
0.800528
0.782287
0.762092
0.739986
0.716019
0.690246
0.662724
0.633514
0.602684
0.570302
0.536441
0.501178
0.464591
0.426764
0.387782
0.347731
0.306702
0.264786
0.222077
0.178669
0.13466
0.0901468
0.0452271
0
0
-0.0443412
-0.0885755
-0.132597
-0.176298
-0.219575
-0.262324
-0.30444
-0.345824
-0.386374
-0.425994
-0.464589
-0.502064
-0.53833
-0.5733
-0.606889
-0.639017
-0.669606
-0.698583
-0.725877
-0.751424
-0.77516
-0.797031
-0.816982
-0.834966
-0.85094
-0.864865
-0.876707
-0.886439
-0.894037
-0.899482
-0.902762
-0.903868
-0.902799
-0.899557
-0.89415
-0.88659
-0.876897
-0.865094
-0.851209
-0.835275
-0.817333
-0.797424
-0.775597
-0.751905
-0.726404
-0.699157
-0.67023
-0.639692
-0.607617
-0.574082
-0.539169
-0.502962
-0.465548
-0.427018
-0.387465
-0.346984
-0.305674
-0.263633
-0.220965
-0.177772
-0.134158
-0.0902283
-0.0460902
-0.00184995
0.0423854
0.0865088
0.130413
0.173993
0.217142
0.259755
0.301731
0.342965
0.38336
0.422816
0.461239
0.498533
0.53461
0.56938
0.60276
0.634668
0.665026
0.69376
0.720799
0.746077
0.769533
0.791107
0.810748
0.828406
0.844036
0.857601
0.869065
0.878399
0.885579
0.890585
0.893404
0.894026
0.892448
0.888671
0.882702
0.874553
0.86424
0.851786
0.837217
0.820566
0.801869
0.781168
0.758509
0.733942
0.707524
0.679312
0.649372
0.61777
0.584577
0.549869
0.513723
0.476221
0.437447
0.397489
0.356435
0.314379
0.271414
0.227635
0.183142
0.138031
0.0924033
0.0463592
0
0
-0.0453172
-0.0905253
-0.135515
-0.180179
-0.224409
-0.268098
-0.311142
-0.353436
-0.39488
-0.435372
-0.474816
-0.513116
-0.55018
-0.58592
-0.620249
-0.653084
-0.684346
-0.713961
-0.741856
-0.767964
-0.792224
-0.814576
-0.834966
-0.853346
-0.869671
-0.883903
-0.896006
-0.905952
-0.913717
-0.919282
-0.922634
-0.923765
-0.922672
-0.919359
-0.913832
-0.906107
-0.8962
-0.884137
-0.869946
-0.853662
-0.835325
-0.814977
-0.79267
-0.768456
-0.742395
-0.714548
-0.684984
-0.653773
-0.620992
-0.586719
-0.551038
-0.514033
-0.475796
-0.436418
-0.395994
-0.354622
-0.312403
-0.269437
-0.225829
-0.181685
-0.137111
-0.0922148
-0.0471051
-0.001891
0.0433181
0.0884127
0.133284
0.177823
0.221921
0.265473
0.308372
0.350515
0.391799
0.432123
0.471391
0.509507
0.546378
0.581914
0.616028
0.648638
0.679665
0.709031
0.736665
0.7625
0.786472
0.808521
0.828594
0.846641
0.862615
0.876478
0.888195
0.897734
0.905072
0.910189
0.913069
0.913705
0.912093
0.908233
0.902132
0.893804
0.883264
0.870536
0.855646
0.838628
0.81952
0.798363
0.775205
0.750098
0.723098
0.694265
0.663666
0.631368
0.597445
0.561972
0.525031
0.486703
0.447076
0.406238
0.364281
0.321299
0.277388
0.232646
0.187173
0.141069
0.0944372
0.0473797
0
0
-0.0461842
-0.0922572
-0.138108
-0.183626
-0.228702
-0.273227
-0.317094
-0.360198
-0.402434
-0.443701
-0.483899
-0.522932
-0.560706
-0.597129
-0.632115
-0.665578
-0.697438
-0.727619
-0.756048
-0.782656
-0.80738
-0.830159
-0.85094
-0.869671
-0.886309
-0.900813
-0.913147
-0.923284
-0.931197
-0.936869
-0.940285
-0.941437
-0.940324