# vtk DataFile Version 3.0
Scalar Field Data
ASCII
DATASET STRUCTURED_POINTS
DIMENSIONS 32 32 1
ORIGIN 0 0 0
SPACING 0.03125 0.03125 1
POINT_DATA 1024
SCALARS scalars double
LOOKUP_TABLE default
0
0
0
0
0
0
0
0
0
0
0
0
0
0
0
0
0
0
0
0
0
0
0
0
0
0
0
0
0
0
0
0
0
-0.0382596
-0.0750519
-0.108966
-0.138702
-0.16312
-0.181287
-0.192509
-0.196359
-0.192697
-0.18167
-0.163712
-0.139522
-0.110045
-0.0764276
-0.0399814
-0.00212973
0.0356448
0.0718568
0.105074
0.133969
0.157372
0.17431
0.184042
0.186085
0.180229
0.166538
0.145342
0.117217
0.0829552
0.0435206
0
0
-0.0750519
-0.147225
-0.213753
-0.272084
-0.319985
-0.355622
-0.377635
-0.385188
-0.378005
-0.356375
-0.321147
-0.273696
-0.215872
-0.149928
-0.0784334
-0.00418242
0.0699174
0.140952
0.206112
0.262794
0.308702
0.341928
0.361018
0.365027
0.35354
0.326683
0.285104
0.229934
0.162726
0.0853704
0
0
-0.108966
-0.213753
-0.310343
-0.395033
-0.464579
-0.51632
-0.54828
-0.559248
-0.548819
-0.517415
-0.46627
-0.397379
-0.313427
-0.217685
-0.113886
-0.006084
0.101498
0.204631
0.299233
0.381528
0.44818
0.49642
0.524137
0.529957
0.51328
0.474288
0.413923
0.333826
0.23625
0.123943
0
0
-0.138702
-0.272084
-0.395033
-0.502834
-0.591359
-0.657221
-0.697904
-0.711866
-0.698592
-0.658621
-0.593521
-0.505832
-0.398973
-0.277106
-0.144984
-0.00776623
0.129172
0.260446
0.380863
0.485613
0.570454
0.631856
0.667137
0.674546
0.65332
0.60369
0.526855
0.424905
0.300707
0.157759
0
0
-0.16312
-0.319985
-0.464579
-0.591359
-0.69547
-0.772927
-0.820775
-0.837196
-0.821589
-0.774583
-0.698026
-0.594904
-0.469236
-0.325918
-0.17054
-0.00916939
0.151873
0.306254
0.447867
0.571056
0.67083
0.743042
0.784534
0.793249
0.768288
0.709925
0.619569
0.499677
0.353623
0.18552
0
0
-0.181287
-0.355622
-0.51632
-0.657221
-0.772927
-0.859013
-0.912192
-0.930445
-0.913103
-0.860867
-0.775788
-0.661187
-0.52153
-0.362257
-0.18958
-0.0102445
0.168727
0.340296
0.497675
0.63458
0.745463
0.825716
0.871829
0.881516
0.853779
0.788922
0.688511
0.555278
0.392972
0.206162
0
0
-0.192509
-0.377635
-0.54828
-0.697904
-0.820775
-0.912192
-0.968665
-0.988053
-0.969643
-0.91418
-0.823842
-0.702155
-0.553861
-0.384739
-0.201383
-0.0109553
0.179086
0.361266
0.52838
0.673753
0.791496
0.876713
0.925681
0.93597
0.906522
0.837659
0.731044
0.589579
0.417246
0.218896
0
0
-0.196359
-0.385188
-0.559248
-0.711866
-0.837196
-0.930445
-0.988053
-1.00784
-0.989064
-0.9325
-0.840365
-0.716255
-0.565007
-0.392514
-0.205503
-0.0112796
0.18255
0.368364
0.53881
0.687083
0.807174
0.894093
0.944039
0.954538
0.924508
0.854279
0.745548
0.601275
0.425521
0.223236
0
0
-0.192697
-0.378005
-0.548819
-0.698592
-0.821589
-0.913103
-0.969643
-0.989064
-0.970653
-0.915156
-0.824752
-0.702971
-0.55456
-0.385301
-0.201795
-0.0112101
0.178988
0.361321
0.528575
0.674071
0.791914
0.877207
0.926221
0.936528
0.907067
0.838163
0.731482
0.589928
0.417489
0.219021
0
0
-0.18167
-0.356375
-0.517415
-0.658621
-0.774583
-0.860867
-0.91418
-0.9325
-0.915156
-0.86285
-0.777637
-0.662844
-0.522946
-0.363394
-0.190411
-0.0107547
0.168538
0.340417
0.498082
0.635237
0.746326
0.82673
0.872939
0.882661
0.854898
0.789957
0.689409
0.555994
0.39347
0.206418
0
0
-0.163712
-0.321147
-0.46627
-0.593521
-0.698026
-0.775788
-0.823842
-0.840365
-0.824752
-0.777637
-0.70087
-0.59745
-0.471408
-0.327657
-0.171804
-0.00993631
0.151604
0.306465
0.44852
0.572097
0.672189
0.744636
0.786274
0.795041
0.770038
0.711543
0.620972
0.500796
0.354401
0.185919
0
0
-0.139522
-0.273696
-0.397379
-0.505832
-0.594904
-0.661187
-0.702155
-0.716255
-0.702971
-0.662844
-0.59745
-0.509344
-0.401962
-0.279489
-0.146703
-0.00879156
0.128842
0.260786
0.381818
0.487108
0.57239
0.634119
0.669601
0.67708
0.655791
0.605973
0.528834
0.426481
0.301804
0.158321
0
0
-0.110045
-0.215872
-0.313427
-0.398973
-0.469236
-0.52153
-0.553861
-0.565007
-0.55456
-0.522946
-0.471408
-0.401962
-0.317315
-0.220769
-0.11609
-0.00736976
0.101133
0.205151
0.300568
0.383575
0.450809
0.499477
0.527456
0.533364
0.516598
0.477351
0.416576
0.335939
0.237719
0.124696
0
0
-0.0764276
-0.149928
-0.217685
-0.277106
-0.325918
-0.362257
-0.384739
-0.392514
-0.385301
-0.363394
-0.327657
-0.279489
-0.220769
-0.153789
-0.0811632
-0.00573071
0.0695522
0.141724
0.207928
0.265523
0.312175
0.345947
0.365369
0.369482
0.357873
0.330678
0.288563
0.232688
0.164639
0.0863509
0
0
-0.0399814
-0.0784334
-0.113886
-0.144984
-0.17054
-0.18958
-0.201383
-0.205503
-0.201795
-0.190411
-0.171804
-0.146703
-0.11609
-0.0811632
-0.0432864
-0.0039424
0.0353255
0.0729713
0.107505
0.137548
0.161885
0.179507
0.189648
0.191814
0.185794
0.171663
0.149776
0.120745
0.0854061
0.0447762
0
0
-0.00212973
-0.00418242
-0.006084
-0.00776623
-0.00916939
-0.0102445
-0.0109553
-0.0112796
-0.0112101
-0.0107547
-0.00993631
-0.00879156
-0.00736976
-0.00573071
-0.0039424
-0.00207829
-0.000214346
0.00157399
0.00321487
0.00464299
0.00580227
0.00664822
0.00714984
0.00729101
0.00707121
0.00650568
0.00562482
0.00447295
0.00310644
0.00159124
0
0
0.0356448
0.0699174
0.101498
0.129172
0.151873
0.168727
0.179086
0.18255
0.178988
0.168538
0.151604
0.128842
0.101133
0.0695522
0.0353255
-0.000214346
-0.0356789
-0.0696762
-0.100863
-0.127994
-0.149967
-0.165866
-0.174988
-0.176872
-0.171306
-0.158336
-0.138255
-0.111584
-0.0790446
-0.0415177
0
0
0.0718568
0.140952
0.204631
0.260446
0.306254
0.340296
0.361266
0.368364
0.361321
0.340417
0.306465
0.260786
0.205151
0.141724
0.0729713
0.00157399
-0.0696762
-0.137981
-0.20064
-0.255151
-0.299304
-0.33126
-0.349612
-0.353441
-0.342333
-0.316392
-0.276218
-0.222874
-0.157825
-0.0828609
0
0
0.105074
0.206112
0.299233
0.380863
0.447867
0.497675
0.52838
0.53881
0.528575
0.498082
0.44852
0.381818
0.300568
0.207928
0.107505
0.00321487
-0.100863
-0.20064
-0.292171
-0.371802
-0.436305
-0.482994
-0.50982
-0.51544
-0.499254
-0.461418
-0.402816
-0.325004
-0.230129
-0.120809
0
0
0.133969
0.262794
0.381528
0.485613
0.571056
0.63458
0.673753
0.687083
0.674071
0.635237
0.572097
0.487108
0.383575
0.265523
0.137548
0.00464299
-0.127994
-0.255151
-0.371802
-0.47329
-0.555502
-0.615016
-0.64922
-0.656406
-0.635811
-0.587635
-0.513005
-0.413907
-0.293077
-0.153852
0
0
0.157372
0.308702
0.44818
0.570454
0.67083
0.745463
0.791496
0.807174
0.791914
0.746326
0.672189
0.57239
0.450809
0.312175
0.161885
0.00580227
-0.149967
-0.299304
-0.436305
-0.555502
-0.652065
-0.721974
-0.762165
-0.77063
-0.746475
-0.689933
-0.602328
-0.48599
-0.344128
-0.180658
0
0
0.17431
0.341928
0.49642
0.631856
0.743042
0.825716
0.876713
0.894093
0.877207
0.82673
0.744636
0.634119
0.499477
0.345947
0.179507
0.00664822
-0.165866
-0.33126
-0.482994
-0.615016
-0.721974
-0.799418
-0.843956
-0.853362
-0.826646
-0.764064
-0.667078
-0.538263
-0.381167
-0.200119
0
0
0.184042
0.361018
0.524137
0.667137
0.784534
0.871829
0.925681
0.944039
0.926221
0.872939
0.786274
0.669601
0.527456
0.365369
0.189648
0.00714984
-0.174988
-0.349612
-0.50982
-0.64922
-0.762165
-0.843956
-0.891011
-0.90098
-0.872815
-0.806784
-0.704424
-0.568446
-0.402583
-0.211389
0
0
0.186085
0.365027
0.529957
0.674546
0.793249
0.881516
0.93597
0.954538
0.936528
0.882661
0.795041
0.67708
0.533364
0.369482
0.191814
0.00729101
-0.176872
-0.353441
-0.51544
-0.656406
-0.77063
-0.853362
-0.90098
-0.911106
-0.88268
-0.815965
-0.712509
-0.57504
-0.407314
-0.213913
0
0
0.180229
0.35354
0.51328
0.65332
0.768288
0.853779
0.906522
0.924508
0.907067
0.854898
0.770038
0.655791
0.516598
0.357873
0.185794
0.00707121
-0.171306
-0.342333
-0.499254
-0.635811
-0.746475
-0.826646
-0.872815
-0.88268
-0.855208
-0.790651
-0.690496
-0.557369
-0.394883
-0.207441
0
0
0.166538
0.326683
0.474288
0.60369
0.709925
0.788922
0.837659
0.854279
0.838163
0.789957
0.711543
0.605973
0.477351
0.330678
0.171663
0.00650568
-0.158336
-0.316392
-0.461418
-0.587635
-0.689933
-0.764064
-0.806784
-0.815965
-0.790651
-0.731066
-0.638574
-0.515581
-0.365393
-0.192028
0
0
0.145342
0.285104
0.413923
0.526855
0.619569
0.688511
0.731044
0.745548
0.731482
0.689409
0.620972
0.528834
0.416576
0.288563
0.149776
0.00562482
-0.138255
-0.276218
-0.402816
-0.513005
-0.602328
-0.667078
-0.704424
-0.712509
-0.690496
-0.638574
-0.557922
-0.450617
-0.319503
-0.168018
0
0
0.117217
0.229934
0.333826
0.424905
0.499677
0.555278
0.589579
0.601275
0.589928
0.555994
0.500796
0.426481
0.335939
0.232688
0.120745
0.00447295
-0.111584
-0.222874
-0.325004
-0.413907
-0.48599
-0.538263
-0.568446
-0.57504
-0.557369
-0.515581
-0.450617
-0.364129
-0.258364
-0.136008
0
0
0.0829552
0.162726
0.23625
0.300707
0.353623
0.392972
0.417246
0.425521
0.417489
0.39347
0.354401
0.301804
0.237719
0.164639
0.0854061
0.00310644
-0.0790446
-0.157825
-0.230129
-0.293077
-0.344128
-0.381167
-0.402583
-0.407314
-0.394883
-0.365393
-0.319503
-0.258364
-0.183524
-0.0967854
0
0
0.0435206
0.0853704
0.123943
0.157759
0.18552
0.206162
0.218896
0.223236
0.219021
0.206418
0.185919
0.158321
0.124696
0.0863509
0.0447762
0.00159124
-0.0415177
-0.0828609
-0.120809
-0.153852
-0.180658
-0.200119
-0.211389
-0.213913
-0.207441
-0.192028
-0.168018
-0.136008
-0.0967854
-0.0512157
0
0
0
0
0
0
0
0
0
0
0
0
0
0
0
0
0
0
0
0
0
0
0
0
0
0
0
0
0
0
0
0
0
