# vtk DataFile Version 3.0
Scalar Field Data
ASCII
DATASET STRUCTURED_POINTS
DIMENSIONS 64 64 1
ORIGIN 0 0 0
SPACING 0.015625 0.015625 1
POINT_DATA 4096
SCALARS scalars double
LOOKUP_TABLE default
0
0
0
0
0
0
0
0
0
0
0
0
0
0
0
0
0
0
0
0
0
0
0
0
0
0
0
0
0
0
0
0
0
0
0
0
0
0
0
0
0
0
0
0
0
0
0
0
0
0
0
0
0
0
0
0
0
0
0
0
0
0
0
0
0
-0.00962329
-0.019154
-0.0285004
-0.0375725
-0.0462832
-0.0545485
-0.062289
-0.0694302
-0.0759034
-0.0816465
-0.0866042
-0.0907288
-0.0939809
-0.0963292
-0.0977513
-0.0982336
-0.0977717
-0.0963702
-0.0940429
-0.0908123
-0.0867099
-0.0817756
-0.076057
-0.0696096
-0.062496
-0.0547849
-0.0465513
-0.0378748
-0.0288396
-0.0195333
-0.0100463
-0.000470623
0.00910066
0.0185745
0.0278585
0.0368623
0.0454979
0.0536808
0.0613307
0.0683722
0.0747359
0.0803582
0.085183
0.0891613
0.0922521
0.0944228
0.095649
0.0959155
0.0952156
0.0935518
0.0909353
0.0873858
0.0829318
0.0776096
0.0714633
0.0645443
0.0569104
0.0486256
0.0397591
0.0303846
0.0205794
0.0104239
0
0
-0.019154
-0.0381237
-0.0567265
-0.0747835
-0.092121
-0.108572
-0.123979
-0.138192
-0.151076
-0.162507
-0.172375
-0.180585
-0.187058
-0.191732
-0.194562
-0.195522
-0.194603
-0.191813
-0.187181
-0.180751
-0.172586
-0.162764
-0.151382
-0.138549
-0.124391
-0.109043
-0.0926547
-0.0753853
-0.0574018
-0.0388788
-0.0199961
-0.000936851
0.0181136
0.03697
0.0554488
0.0733698
0.0905579
0.106845
0.122071
0.136086
0.148752
0.159943
0.169546
0.177464
0.183616
0.187937
0.190377
0.190908
0.189515
0.186203
0.180995
0.173931
0.165065
0.154472
0.142239
0.128467
0.113273
0.0967833
0.0791356
0.0604767
0.0409608
0.0207474
0
0
-0.0285004
-0.0567265
-0.0844068
-0.111275
-0.137072
-0.161551
-0.184475
-0.205625
-0.224796
-0.241805
-0.256487
-0.268703
-0.278334
-0.285289
-0.289501
-0.290929
-0.289561
-0.28541
-0.278518
-0.26895
-0.256801
-0.242187
-0.225251
-0.206156
-0.185089
-0.162252
-0.137867
-0.112171
-0.0854119
-0.0578505
-0.0297537
-0.00139433
0.026952
0.0550096
0.0825053
0.109171
0.134746
0.158981
0.181636
0.202491
0.221337
0.237988
0.252278
0.26406
0.273213
0.279642
0.283274
0.284063
0.28199
0.277063
0.269314
0.258802
0.245611
0.229848
0.211646
0.191154
0.168546
0.144009
0.11775
0.0899868
0.0609479
0.0308712
0
0
-0.0375725
-0.0747835
-0.111275
-0.146696
-0.180705
-0.212975
-0.243197
-0.271079
-0.296352
-0.318775
-0.338132
-0.354236
-0.366933
-0.376101
-0.381654
-0.383537
-0.381733
-0.376262
-0.367175
-0.354562
-0.338545
-0.31928
-0.296952
-0.27178
-0.244006
-0.213899
-0.181753
-0.147877
-0.112601
-0.0762658
-0.0392254
-0.0018388
0.0355306
0.0725194
0.108767
0.143921
0.177637
0.209586
0.239454
0.266946
0.291792
0.313743
0.332581
0.348113
0.360181
0.368656
0.373444
0.374484
0.371752
0.365256
0.35504
0.341182
0.323792
0.303012
0.279015
0.252001
0.222196
0.18985
0.155232
0.118631
0.0803484
0.0406979
0
0
-0.0462832
-0.092121
-0.137072
-0.180705
-0.222599
-0.262351
-0.299579
-0.333924
-0.365057
-0.392678
-0.416522
-0.43636
-0.452001
-0.463295
-0.470135
-0.472454
-0.470233
-0.463493
-0.452299
-0.436762
-0.417032
-0.3933
-0.365797
-0.334788
-0.300575
-0.26349
-0.22389
-0.182161
-0.138706
-0.0939478
-0.0483202
-0.0022661
0.0437668
0.0893308
0.133982
0.177286
0.218819
0.258174
0.294966
0.328832
0.359438
0.386479
0.409683
0.428817
0.443682
0.454122
0.460019
0.461301
0.457935
0.449933
0.437349
0.420278
0.398857
0.37326
0.3437
0.310423
0.273708
0.233863
0.19122
0.146133
0.0989757
0.050133
0
0
-0.0545485
-0.108572
-0.161551
-0.212975
-0.262351
-0.309202
-0.353078
-0.393557
-0.43025
-0.462804
-0.490906
-0.514286
-0.53272
-0.546031
-0.554092
-0.556826
-0.554208
-0.546264
-0.533072
-0.51476
-0.491507
-0.463537
-0.431122
-0.394576
-0.354254
-0.310545
-0.263874
-0.214692
-0.163478
-0.110726
-0.0569506
-0.00267228
0.0515811
0.105282
0.157907
0.208944
0.257894
0.304277
0.347639
0.387554
0.423625
0.455494
0.482843
0.505393
0.522913
0.535217
0.542168
0.543679
0.539712
0.530281
0.51545
0.49533
0.470083
0.439915
0.405076
0.365857
0.322586
0.275625
0.225367
0.172229
0.11665
0.0590855
0
0
-0.062289
-0.123979
-0.184475
-0.243197
-0.299579
-0.353078
-0.40318
-0.449403
-0.491303
-0.528476
-0.560566
-0.587264
-0.608314
-0.623514
-0.632719
-0.635841
-0.632851
-0.62378
-0.608716
-0.587806
-0.561253
-0.529314
-0.4923
-0.450568
-0.404524
-0.354613
-0.301319
-0.245159
-0.186677
-0.126441
-0.0650339
-0.00305354
0.0588984
0.120219
0.180312
0.238591
0.294486
0.347452
0.396967
0.442545
0.483735
0.520126
0.551356
0.577106
0.597112
0.611162
0.619099
0.620824
0.616295
0.605526
0.58859
0.565615
0.536786
0.502338
0.462555
0.417771
0.368359
0.314735
0.257345
0.196668
0.133203
0.0674695
0
0
-0.0694302
-0.138192
-0.205625
-0.271079
-0.333924
-0.393557
-0.449403
-0.500925
-0.547629
-0.589064
-0.624833
-0.654592
-0.678055
-0.694998
-0.705258
-0.708738
-0.705406
-0.695295
-0.678504
-0.655197
-0.6256
-0.589999
-0.548741
-0.502226
-0.450903
-0.39527
-0.335866
-0.273268
-0.208081
-0.140939
-0.0724924
-0.00340637
0.0656479
0.133999
0.200981
0.265941
0.328245
0.387282
0.442474
0.493277
0.539189
0.579753
0.614563
0.643265
0.665565
0.681225
0.690073
0.691995
0.686947
0.674943
0.656066
0.630458
0.598323
0.559925
0.515582
0.465664
0.410588
0.350816
0.286847
0.219213
0.148473
0.0752041
0
0
-0.0759034
-0.151076
-0.224796
-0.296352
-0.365057
-0.43025
-0.491303
-0.547629
-0.598687
-0.643985
-0.683089
-0.715622
-0.741273
-0.759796
-0.771013
-0.774817
-0.771175
-0.760121
-0.741765
-0.716285
-0.683928
-0.645009
-0.599904
-0.549052
-0.492944
-0.432125
-0.367183
-0.298748
-0.227484
-0.154082
-0.0792545
-0.00372751
0.0717648
0.146488
0.219715
0.290731
0.358844
0.423385
0.483723
0.539262
0.589455
0.633801
0.671856
0.703234
0.727613
0.744733
0.754406
0.756508
0.750988
0.737866
0.717228
0.689233
0.654103
0.612125
0.563648
0.509076
0.448866
0.383521
0.313589
0.23965
0.162314
0.0822151
0
0
-0.0816465
-0.162507
-0.241805
-0.318775
-0.392678
-0.462804
-0.528476
-0.589064
-0.643985
-0.692711
-0.734773
-0.769769
-0.79736
-0.817285
-0.82935
-0.833443
-0.829525
-0.817635
-0.79789
-0.770482
-0.735678
-0.693814
-0.645297
-0.590597
-0.530244
-0.464823
-0.394968
-0.321356
-0.2447
-0.165745
-0.0852553
-0.004014
0.07719
0.157567
0.236334
0.312724
0.385989
0.455414
0.520317
0.580058
0.634048
0.681749
0.722683
0.756436
0.782659
0.801075
0.811479
0.813741
0.807803
0.793688
0.77149
0.741376
0.703589
0.658435
0.60629
0.54759
0.482824
0.412536
0.337313
0.25778
0.174594
0.0884349
0
0
-0.0866042
-0.172375
-0.256487
-0.338132
-0.416522
-0.490906
-0.560566
-0.624833
-0.683089
-0.734773
-0.77939
-0.81651
-0.845778
-0.866912
-0.87971
-0.884052
-0.879896
-0.867284
-0.84634
-0.817269
-0.780351
-0.735945
-0.684483
-0.626462
-0.562444
-0.493051
-0.418955
-0.340873
-0.259563
-0.175814
-0.0904373
-0.00426323
0.0818713
0.167128
0.250678
0.331706
0.40942
0.48306
0.551903
0.615272
0.67254
0.723138
0.766558
0.80236
0.830175
0.849709
0.860745
0.863144
0.856846
0.841874
0.818328
0.786386
0.746304
0.69841
0.643099
0.580834
0.512137
0.437582
0.357792
0.27343
0.185193
0.0938038
0
0
-0.0907288
-0.180585
-0.268703
-0.354236
-0.43636
-0.514286
-0.587264
-0.654592
-0.715622
-0.769769
-0.81651
-0.855399
-0.88606
-0.908201
-0.921609
-0.926157
-0.921804
-0.908592
-0.886651
-0.856195
-0.817519
-0.770999
-0.717086
-0.656302
-0.589236
-0.516538
-0.438913
-0.357113
-0.271931
-0.184193
-0.0947508
-0.00447294
0.0857635
0.175081
0.262609
0.347496
0.428911
0.506058
0.57818
0.644567
0.704562
0.757569
0.803056
0.840563
0.869704
0.890168
0.90173
0.904243
0.897645
0.88196
0.857293
0.823831
0.78184
0.731665
0.67372
0.608491
0.536522
0.458417
0.374828
0.286449
0.194011
0.0982702
0
0
-0.0939809
-0.187058
-0.278334
-0.366933
-0.452001
-0.53272
-0.608314
-0.678055
-0.741273
-0.79736
-0.845778
-0.88606
-0.917821
-0.940755
-0.954644
-0.959356
-0.954846
-0.941161
-0.918434
-0.886887
-0.846825
-0.798638
-0.742793
-0.67983
-0.610361
-0.535058
-0.454651
-0.369919
-0.281684
-0.190802
-0.0981546
-0.00464126
0.0888291
0.181347
0.272013
0.359942
0.444274
0.524186
0.598893
0.667659
0.729805
0.784711
0.831829
0.87068
0.900865
0.922063
0.934039
0.936642
0.929809
0.913562
0.888011
0.853349
0.809854
0.757881
0.69786
0.630293
0.555746
0.474842
0.388258
0.296713
0.200963
0.101791
0
0
-0.0963292
-0.191732
-0.285289
-0.376101
-0.463295
-0.546031
-0.623514
-0.694998
-0.759796
-0.817285
-0.866912
-0.908201
-0.940755
-0.964263
-0.9785
-0.983329
-0.978707
-0.96468
-0.941386
-0.909051
-0.867988
-0.818598
-0.761357
-0.696822
-0.625618
-0.548434
-0.466018
-0.379169
-0.28873
-0.195578
-0.100616
-0.00476671
0.0910387
0.185868
0.278799
0.368924
0.455363
0.537272
0.613845
0.684329
0.748027
0.804305
0.8526
0.892422
0.923361
0.945089
0.957364
0.960032
0.953028
0.936375
0.910186
0.874659
0.830078
0.776807
0.715287
0.646033
0.569624
0.4867
0.397953
0.304122
0.205981
0.104333
0
0
-0.0977513
-0.194562
-0.289501
-0.381654
-0.470135
-0.554092
-0.632719
-0.705258
-0.771013
-0.82935
-0.87971
-0.921609
-0.954644
-0.9785
-0.992946
-0.997848
-0.993158
-0.978924
-0.955287
-0.922474
-0.880806
-0.830687
-0.772602
-0.707115
-0.63486
-0.556537
-0.472905
-0.384775
-0.293002
-0.198475
-0.102112
-0.00484824
0.0923708
0.1886
0.282901
0.374356
0.462072
0.545188
0.622891
0.694415
0.759053
0.816162
0.86517
0.90558
0.936975
0.959024
0.97148
0.974188
0.967081
0.950183
0.923607
0.887556
0.842318
0.788261
0.725834
0.655559
0.578023
0.493876
0.40382
0.308606
0.209018
0.105871
0
0
-0.0982336
-0.195522
-0.290929
-0.383537
-0.472454
-0.556826
-0.635841
-0.708738
-0.774817
-0.833443
-0.884052
-0.926157
-0.959356
-0.983329
-0.997848
-1.00277
-0.998061
-0.983758
-0.960004
-0.92703
-0.885157
-0.834791
-0.776421
-0.710611
-0.638
-0.559291
-0.475248
-0.386684
-0.294458
-0.199466
-0.102628
-0.00488521
0.0928128
0.189516
0.284282
0.376188
0.464335
0.547861
0.625947
0.697823
0.76278
0.82017
0.869419
0.910028
0.941578
0.963736
0.976254
0.978975
0.971833
0.954852
0.928146
0.891918
0.846457
0.792134
0.729401
0.65878
0.580863
0.496302
0.405804
0.310122
0.210044
0.106391
0
0
-0.0977717
-0.194603
-0.289561
-0.381733
-0.470233
-0.554208
-0.632851
-0.705406
-0.771175
-0.829525
-0.879896
-0.921804
-0.954846
-0.978707
-0.993158
-0.998061
-0.993371
-0.979136
-0.955494
-0.922676
-0.881001
-0.830873
-0.772777
-0.707278
-0.635009
-0.556671
-0.473024
-0.384877
-0.293086
-0.198541
-0.10216
-0.00487741
0.0923603
0.188608
0.282927
0.3744
0.462132
0.545265
0.622983
0.694521
0.759171
0.816291
0.865308
0.905726
0.937128
0.959181
0.97164
0.974349
0.967241
0.95034
0.92376
0.887703
0.842457
0.788391
0.725954
0.655666
0.578117
0.493956
0.403886
0.308655
0.209051
0.105888
0
0
-0.0963702
-0.191813
-0.28541
-0.376262
-0.463493
-0.546264
-0.62378
-0.695295
-0.760121
-0.817635
-0.867284
-0.908592
-0.941161
-0.96468
-0.978924
-0.983758
-0.979136
-0.965105
-0.941803
-0.909456
-0.868379
-0.81897
-0.761708
-0.697149
-0.625917
-0.548703
-0.466256
-0.379374
-0.288899
-0.195711
-0.100712
-0.00482507
0.0910177
0.185884
0.278851
0.369012
0.455485
0.537426
0.614029
0.68454
0.748263
0.804564
0.852878
0.892716
0.923668
0.945405
0.957685
0.960356
0.95335
0.936692
0.910494
0.874955
0.830358
0.777068
0.715528
0.646249
0.569814
0.486861
0.398084
0.304222
0.206048
0.104367
0
0
-0.0940429
-0.187181
-0.278518
-0.367175
-0.452299
-0.533072
-0.608716
-0.678504
-0.741765
-0.79789
-0.84634
-0.886651
-0.918434
-0.941386
-0.955287
-0.960004
-0.955494
-0.941803
-0.919064
-0.8875
-0.847415
-0.799201
-0.743323
-0.680323
-0.610813
-0.535465
-0.45501
-0.370227
-0.281939
-0.191002
-0.0982987
-0.00472884
0.0887982
0.181373
0.272093
0.360075
0.444459
0.52442
0.599172
0.66798
0.730163
0.785104
0.832251
0.871126
0.90133
0.922542
0.934526
0.937132
0.930296
0.914041
0.888476
0.853797
0.810278
0.758277
0.698224
0.630621
0.556034
0.475087
0.388457
0.296864
0.201064
0.101842
0
0
-0.0908123
-0.180751
-0.26895
-0.354562
-0.436762
-0.51476
-0.587806
-0.655197
-0.716285
-0.770482
-0.817269
-0.856195
-0.886887
-0.909051
-0.922474
-0.92703
-0.922676
-0.909456
-0.8875
-0.85702
-0.818314
-0.771757
-0.717799
-0.656965
-0.589844
-0.517086
-0.439396
-0.357527
-0.272273
-0.184461
-0.094944
-0.00458981
0.085723
0.175116
0.262719
0.347677
0.429161
0.506374
0.578557
0.645001
0.705047
0.758099
0.803626
0.841166
0.870331
0.890815
0.902387
0.904904
0.898303
0.882607
0.857922
0.824435
0.782413
0.7322
0.674212
0.608933
0.53691
0.458747
0.375096
0.286653
0.194149
0.0983392
0
0
-0.0867099
-0.172586
-0.256801
-0.338545
-0.417032
-0.491507
-0.561253
-0.6256
-0.683928
-0.735678
-0.780351
-0.817519
-0.846825
-0.867988
-0.880806
-0.885157
-0.881001
-0.868379
-0.847415
-0.818314
-0.781358
-0.736905
-0.685386
-0.627302
-0.563214
-0.493744
-0.419565
-0.341396
-0.259996
-0.176152
-0.0906803
-0.00440946
0.0818219
0.167175
0.250819
0.331938
0.40974
0.483463
0.552384
0.615825
0.673158
0.723813
0.767282
0.803125
0.830973
0.850531
0.861581
0.863984
0.857682
0.842696
0.819127
0.787154
0.747032
0.699089
0.643723
0.581396
0.51263
0.438001
0.358133
0.273689
0.185368
0.0938914
0
0
-0.0817756
-0.162764
-0.242187
-0.31928
-0.3933
-0.463537
-0.529314
-0.589999
-0.645009
-0.693814
-0.735945
-0.770999
-0.798638
-0.818598
-0.830687
-0.834791
-0.830873
-0.81897
-0.799201
-0.771757
-0.736905
-0.694983
-0.646398
-0.59162
-0.531181
-0.465666
-0.395711
-0.321992
-0.245225
-0.166155
-0.0855492
-0.00418969
0.0771326
0.157627
0.236509
0.31301
0.386383
0.455909
0.520907
0.580736
0.634805
0.682576
0.723571
0.757374
0.783637
0.802081
0.812503
0.814769
0.808827
0.794694
0.772468
0.742316
0.704479
0.659266
0.607054
0.548277
0.483427
0.413049
0.33773
0.258097
0.174807
0.0885421
0
0
-0.076057
-0.151382
-0.225251
-0.296952
-0.365797
-0.431122
-0.4923
-0.548741
-0.599904
-0.645297
-0.684483
-0.717086
-0.742793
-0.761357
-0.772602
-0.776421
-0.772777
-0.761708
-0.743323
-0.717799
-0.685386
-0.646398
-0.601212
-0.550267
-0.494057
-0.433125
-0.368064
-0.299502
-0.228106
-0.154568
-0.0796006
-0.00393277
0.0717005
0.146563
0.219927
0.291076
0.359316
0.423979
0.48443
0.540073
0.59036
0.634789
0.672917
0.704355
0.728781
0.745935
0.755628
0.757736
0.75221
0.739067
0.718396
0.690354
0.655166
0.613118
0.564559
0.509896
0.449586
0.384134
0.314087
0.240028
0.162569
0.0823431
0
0
-0.0696096
-0.138549
-0.206156
-0.27178
-0.334788
-0.394576
-0.450568
-0.502226
-0.549052
-0.590597
-0.626462
-0.656302
-0.67983
-0.696822
-0.707115
-0.710611
-0.707278
-0.697149
-0.680323
-0.656965
-0.627302
-0.59162
-0.550267
-0.503643
-0.4522
-0.396436
-0.336892
-0.274145
-0.208804
-0.141502
-0.0728922
-0.00364133
0.0655779
0.134092
0.201235
0.26635
0.328803
0.387982
0.443306
0.494231
0.540254
0.580915
0.615809
0.644582
0.666936
0.682636
0.691507
0.693438
0.68838
0.676353
0.657436
0.631773
0.59957
0.56109
0.516651
0.466626
0.411433
0.351535
0.287432
0.219657
0.148771
0.0753542
0
0
-0.062496
-0.124391
-0.185089
-0.244006
-0.300575
-0.354254
-0.404524
-0.450903
-0.492944
-0.530244
-0.562444
-0.589236
-0.610361
-0.625618
-0.63486
-0.638
-0.635009
-0.625917
-0.610813
-0.589844
-0.563214
-0.531181
-0.494057
-0.4522
-0.406016
-0.355954
-0.302498
-0.246166
-0.187505
-0.127084
-0.0654892
-0.00331832
0.0588242
0.120334
0.180612
0.23907
0.295138
0.348267
0.397935
0.443654
0.484971
0.521476
0.552802
0.578633
0.598703
0.612798
0.620762
0.622496
0.617956
0.607159
0.590177
0.56714
0.53823
0.503686
0.463793
0.418885
0.369338
0.315567
0.258022
0.197182
0.133548
0.0676433
0
0
-0.0547849
-0.109043
-0.162252
-0.213899
-0.26349
-0.310545
-0.354613
-0.39527
-0.432125
-0.464823
-0.493051
-0.516538
-0.535058
-0.548434
-0.556537
-0.559291
-0.556671
-0.548703
-0.535465
-0.517086
-0.493744
-0.465666
-0.433125
-0.396436
-0.355954
-0.312072
-0.265215
-0.215837
-0.164418
-0.111455
-0.0574634
-0.00296701
0.0515045
0.105421
0.158259
0.209501
0.258648
0.305218
0.348755
0.38883
0.425047
0.457046
0.484506
0.507148
0.524741
0.537096
0.544078
0.545598
0.54162
0.532156
0.517272
0.49708
0.471741
0.441463
0.406497
0.367136
0.323709
0.27658
0.226143
0.172819
0.117047
0.059285
0
0
-0.0465513
-0.0926547
-0.137867
-0.181753
-0.22389
-0.263874
-0.301319
-0.335866
-0.367183
-0.394968
-0.418955
-0.438913
-0.454651
-0.466018
-0.472905
-0.475248
-0.473024
-0.466256
-0.45501
-0.439396
-0.419565
-0.395711
-0.368064
-0.336892
-0.302498
-0.265215
-0.225404
-0.183452
-0.139764
-0.0947656
-0.0488927
-0.00259093
0.0436898
0.0894992
0.134391
0.177928
0.219685
0.259253
0.296243
0.330293
0.361064
0.388251
0.411582
0.43082
0.445767
0.456265
0.462197
0.463489
0.46011
0.452071
0.439426
0.422272
0.400746
0.375023
0.345319
0.31188
0.274987
0.234951
0.192104
0.146805
0.0994277
0.0503602
0
0
-0.0378748
-0.0753853
-0.112171
-0.147877
-0.182161
-0.214692
-0.245159
-0.273268
-0.298748
-0.321356
-0.340873
-0.357113
-0.369919
-0.379169
-0.384775
-0.386684
-0.384877
-0.379374
-0.370227
-0.357527
-0.341396
-0.321992
-0.299502
-0.274145
-0.246166
-0.215837
-0.183452
-0.149324
-0.113784
-0.0771779
-0.0398603
-0.00219385
0.0354555
0.0727216
0.109241
0.144659
0.178628
0.210816
0.240908
0.268607
0.29364
0.315756
0.334736
0.350386
0.362546
0.371087
0.375913
0.376965
0.374217
0.367679
0.357394
0.343441
0.325932
0.30501
0.28085
0.253652
0.223646
0.191082
0.156234
0.119392
0.0808606
0.0409554
0
0
-0.0288396
-0.0574018
-0.0854119
-0.112601
-0.138706
-0.163478
-0.186677
-0.208081
-0.227484
-0.2447
-0.259563
-0.271931
-0.281684
-0.28873
-0.293002
-0.294458
-0.293086
-0.288899
-0.281939
-0.272273
-0.259996
-0.245225
-0.228106
-0.208804
-0.187505
-0.164418
-0.139764
-0.113784
-0.0867293
-0.0588624
-0.030454
-0.00177975
0.0268815
0.0552509
0.0830522
0.110014
0.135874
0.160378
0.183286
0.204372
0.223429
0.240265
0.254714
0.266628
0.275885
0.282387
0.286062
0.286864
0.284773
0.279798
0.27197
0.261351
0.248026
0.232103
0.213715
0.193017
0.170181
0.1454
0.118881
0.0908456
0.0615256
0.0311616
0
0
-0.0195333
-0.0388788
-0.0578505
-0.0762658
-0.0939478
-0.110726
-0.126441
-0.140939
-0.154082
-0.165745
-0.175814
-0.184193
-0.190802
-0.195578
-0.198475
-0.199466
-0.198541
-0.195711
-0.191002
-0.184461
-0.176152
-0.166155
-0.154568
-0.141502
-0.127084
-0.111455
-0.0947656
-0.0771779
-0.0588624
-0.0399971
-0.0207649
-0.00135274
0.0180507
0.0372566
0.0560779
0.0743311
0.0918379
0.108427
0.123935
0.138211
0.151111
0.16251
0.172292
0.180358
0.186625
0.191027
0.193516
0.19406
0.192646
0.18928
0.183984
0.176798
0.167782
0.157008
0.144566
0.130562
0.115112
0.0983466
0.0804068
0.0614422
0.0416103
0.0210739
0
0
-0.0100463
-0.0199961
-0.0297537
-0.0392254
-0.0483202
-0.0569506
-0.0650339
-0.0724924
-0.0792545
-0.0852553
-0.0904373
-0.0947508
-0.0981546
-0.100616
-0.102112
-0.102628
-0.10216
-0.100712
-0.0982987
-0.094944
-0.0906803
-0.0855492
-0.0796006
-0.0728922
-0.0654892
-0.0574634
-0.0488927
-0.0398603
-0.030454
-0.0207649
-0.0108873
-0.000917091
0.00904868
0.0189131
0.0285799
0.037955
0.0469466
0.0554668
0.0634321
0.0707639
0.0773898
0.0832441
0.088268
0.092411
0.0956303
0.0978921
0.0991715
0.0994526
0.0987289
0.0970032
0.0942873
0.0906023
0.0859781
0.080453
0.0740732
0.0668926
0.0589721
0.0503785
0.0411845
0.0314672
0.0213076
0.0107899
0
0
-0.000470623
-0.000936851
-0.00139433
-0.0018388
-0.0022661
-0.00267228
-0.00305354
-0.00340637
-0.00372751
-0.004014
-0.00426323
-0.00447294
-0.00464126
-0.00476671
-0.00484824
-0.00488521
-0.00487741
-0.00482507
-0.00472884
-0.00458981
-0.00440946
-0.00418969
-0.00393277
-0.00364133
-0.00331832
-0.00296701
-0.00259093
-0.00219385
-0.00177975
-0.00135274
-0.000917091
-0.000477116
-3.71821e-05
0.000398354
0.000825186
0.0012391
0.00163603
0.00201206
0.00236351
0.00268694
0.00297919
0.00323745
0.00345921
0.00364237
0.0037852
0.00388638
0.00394504
0.00396071
0.00393339
0.0038635
0.0037519
0.00359988
0.00340915
0.00318182
0.00292037
0.00262763
0.00230677
0.00196124
0.00159474
0.0012112
0.000814728
0.000409551
0
0
0.00910066
0.0181136
0.026952
0.0355306
0.0437668
0.0515811
0.0588984
0.0656479
0.0717648
0.07719
0.0818713
0.0857635
0.0888291
0.0910387
0.0923708
0.0928128
0.0923603
0.0910177
0.0887982
0.085723
0.0818219
0.0771326
0.0717005
0.0655779
0.0588242
0.0515045
0.0436898
0.0354555
0.0268815
0.0180507
0.00904868
-3.71821e-05
-0.00911873
-0.0181077
-0.0269167
-0.0354598
-0.0436537
-0.0514182
-0.0586771
-0.0653589
-0.0713975
-0.0767327
-0.0813111
-0.085086
-0.0880183
-0.0900769
-0.0912385
-0.0914883
-0.0908196
-0.0892345
-0.0867431
-0.0833639
-0.0791232
-0.0740552
-0.0682012
-0.0616093
-0.0543339
-0.0464351
-0.037978
-0.0290318
-0.0196695
-0.00996645
0
0
0.0185745
0.03697
0.0550096
0.0725194
0.0893308
0.105282
0.120219
0.133999
0.146488
0.157567
0.167128
0.175081
0.181347
0.185868
0.1886
0.189516
0.188608
0.185884
0.181373
0.175116
0.167175
0.157627
0.146563
0.134092
0.120334
0.105421
0.0894992
0.0727216
0.0552509
0.0372566
0.0189131
0.000398354
-0.0181077
-0.0364253
-0.054376
-0.0717851
-0.0884823
-0.104304
-0.119096
-0.132712
-0.145017
-0.155889
-0.165219
-0.172911
-0.178888
-0.183084
-0.185454
-0.185966
-0.184609
-0.181386
-0.176318
-0.169444
-0.160817
-0.150507
-0.1386
-0.125194
-0.110399
-0.0943401
-0.077149
-0.058968
-0.0399459
-0.0202372
0
0
0.0278585
0.0554488
0.0825053
0.108767
0.133982
0.157907
0.180312
0.200981
0.219715
0.236334
0.250678
0.262609
0.272013
0.278799
0.282901
0.284282
0.282927
0.278851
0.272093
0.262719
0.250819
0.236509
0.219927
0.201235
0.180612
0.158259
0.134391
0.109241
0.0830522
0.0560779
0.0285799
0.000825187
-0.0269167
-0.054376
-0.0812856
-0.107383
-0.132413
-0.156132
-0.178306
-0.198717
-0.217163
-0.23346
-0.247446
-0.258979
-0.267938
-0.27423
-0.277783
-0.278554
-0.276521
-0.271693
-0.264101
-0.253801
-0.240876
-0.22543
-0.207591
-0.187507
-0.165344
-0.141288
-0.115537
-0.0883061
-0.0598174
-0.0303029
0
0
0.0368623
0.0733698
0.109171
0.143921
0.177286
0.208944
0.238591
0.265941
0.290731
0.312724
0.331706
0.347496
0.359942
0.368924
0.374356
0.376188
0.3744
0.369012
0.360075
0.347677
0.331938
0.31301
0.291076
0.26635
0.23907
0.209501
0.177928
0.144659
0.110014
0.0743311
0.037955
0.0012391
-0.0354598
-0.0717851
-0.107383
-0.141906
-0.175019
-0.206395
-0.235728
-0.262729
-0.287131
-0.308691
-0.327193
-0.342449
-0.354302
-0.362626
-0.367327
-0.368348
-0.365661
-0.359276
-0.349236
-0.335615
-0.318521
-0.298094
-0.274502
-0.247941
-0.218632
-0.18682
-0.152769
-0.11676
-0.0790902
-0.0400655
0
0
0.0454979
0.0905579
0.134746
0.177637
0.218819
0.257894
0.294486
0.328245
0.358844
0.385989
0.40942
0.428911
0.444274
0.455363
0.462072
0.464335
0.462132
0.455485
0.444459
0.429161
0.40974
0.386383
0.359316
0.328803
0.295138
0.258648
0.219685
0.178628
0.135874
0.0918379
0.0469466
0.00163603
-0.0436537
-0.0884823
-0.132413
-0.175019
-0.215882
-0.254604
-0.290803
-0.324125
-0.35424
-0.380847
-0.40368
-0.422507
-0.437135
-0.447408
-0.453212
-0.454472
-0.451158
-0.443281
-0.430892
-0.414085
-0.392994
-0.36779
-0.33868
-0.305907
-0.269745
-0.230493
-0.18848
-0.144053
-0.0975764
-0.0494296
0
0
0.0536808
0.106845
0.158981
0.209586
0.258174
0.304277
0.347452
0.387282
0.423385
0.455414
0.48306
0.506058
0.524186
0.537272
0.545188
0.547861
0.545265
0.537426
0.52442
0.506374
0.483463
0.455909
0.423979
0.387982
0.348267
0.305218
0.259253
0.210816
0.160378
0.108427
0.0554668
0.00201206
-0.0514182
-0.104304
-0.156132
-0.206395
-0.254604
-0.300285
-0.342992
-0.382303
-0.417831
-0.449221
-0.476158
-0.49837
-0.515628
-0.527748
-0.534596
-0.536084
-0.532176
-0.522884
-0.508271
-0.488445
-0.463566
-0.433835
-0.399497
-0.360838
-0.318181
-0.27188
-0.222322
-0.169917
-0.115095
-0.0583038
0
0
0.0613307
0.122071
0.181636
0.239454
0.294966
0.347639
0.396967
0.442474
0.483723
0.520317
0.551903
0.57818
0.598893
0.613845
0.622891
0.625947
0.622983
0.614029
0.599172
0.578557
0.552384
0.520907
0.48443
0.443306
0.397935
0.348755
0.296243
0.240908
0.183286
0.123935
0.0634321
0.00236351
-0.0586771
-0.119096
-0.178306
-0.235728
-0.290803
-0.342992
-0.391782
-0.436693
-0.477281
-0.513142
-0.543917
-0.569294
-0.58901
-0.602858
-0.610681
-0.612382
-0.607919
-0.597306
-0.580612
-0.557966
-0.529545
-0.495582
-0.456356
-0.412195
-0.363466
-0.310575
-0.253963
-0.194099
-0.131475
-0.0666011
0
0
0.0683722
0.136086
0.202491
0.266946
0.328832
0.387554
0.442545
0.493277
0.539262
0.580058
0.615272
0.644567
0.667659
0.684329
0.694415
0.697823
0.694521
0.68454
0.66798
0.645001
0.615825
0.580736
0.540073
0.494231
0.443654
0.38883
0.330293
0.268607
0.204372
0.138211
0.0707639
0.00268694
-0.0653589
-0.132712
-0.198717
-0.262729
-0.324125
-0.382303
-0.436693
-0.486759
-0.532005
-0.571982
-0.60629
-0.634579
-0.656559
-0.671997
-0.680719
-0.682617
-0.677643
-0.665813
-0.647205
-0.621962
-0.590282
-0.552423
-0.508699
-0.459472
-0.405154
-0.346197
-0.283092
-0.216361
-0.146554
-0.0742398
0
0
0.0747359
0.148752
0.221337
0.291792
0.359438
0.423625
0.483735
0.539189
0.589455
0.634048
0.67254
0.704562
0.729805
0.748027
0.759053
0.76278
0.759171
0.748263
0.730163
0.705047
0.673158
0.634805
0.59036
0.540254
0.484971
0.425047
0.361064
0.29364
0.223429
0.151111
0.0773898
0.00297919
-0.0713975
-0.145017
-0.217163
-0.287131
-0.35424
-0.417831
-0.477281
-0.532005
-0.581462
-0.625159
-0.662659
-0.693581
-0.717607
-0.734482
-0.744017
-0.746093
-0.740657
-0.727728
-0.707391
-0.679801
-0.645176
-0.603797
-0.556007
-0.502203
-0.442833
-0.378394
-0.30942
-0.236484
-0.160185
-0.0811447
0
0
0.0803582
0.159943
0.237988
0.313743
0.386479
0.455494
0.520126
0.579753
0.633801
0.681749
0.723138
0.757569
0.784711
0.804305
0.816162
0.82017
0.816291
0.804564
0.785104
0.758099
0.723813
0.682576
0.634789
0.580915
0.521476
0.457046
0.388251
0.315756
0.240265
0.16251
0.0832441
0.00323745
-0.0767327
-0.155889
-0.23346
-0.308691
-0.380847
-0.449221
-0.513142
-0.571982
-0.625159
-0.672143
-0.712464
-0.745713
-0.771547
-0.789692
-0.799945
-0.802179
-0.796336
-0.782436
-0.760572
-0.730909
-0.693681
-0.649193
-0.597811
-0.539963
-0.47613
-0.406846
-0.332687
-0.254267
-0.172231
-0.0872471
0
0
0.085183
0.169546
0.252278
0.332581
0.409683
0.482843
0.551356
0.614563
0.671856
0.722683
0.766558
0.803056
0.831829
0.8526
0.86517
0.869419
0.865308
0.852878
0.832251
0.803626
0.767282
0.723571
0.672917
0.615809
0.552802
0.484506
0.411582
0.334736
0.254714
0.172292
0.088268
0.00345921
-0.0813111
-0.165219
-0.247446
-0.327193
-0.40368
-0.476158
-0.543917
-0.60629
-0.662659
-0.712464
-0.755206
-0.790452
-0.817837
-0.837073
-0.847944
-0.850313
-0.844121
-0.829389
-0.806214
-0.774772
-0.735313
-0.688156
-0.633692
-0.572373
-0.50471
-0.431269
-0.352659
-0.269533
-0.182572
-0.0924861
0
0
0.0891613
0.177464
0.26406
0.348113
0.428817
0.505393
0.577106
0.643265
0.703234
0.756436
0.80236
0.840563
0.87068
0.892422
0.90558
0.910028
0.905726
0.892716
0.871126
0.841166
0.803125
0.757374
0.704355
0.644582
0.578633
0.507148
0.43082
0.350386
0.266628
0.180358
0.092411
0.00364237
-0.085086
-0.172911
-0.258979
-0.342449
-0.422507
-0.49837
-0.569294
-0.634579
-0.693581
-0.745713
-0.790452
-0.827344
-0.85601
-0.876145
-0.887525
-0.890007
-0.883528
-0.86811
-0.843856
-0.810948
-0.769648
-0.720291
-0.663286
-0.599105
-0.528285
-0.451415
-0.369135
-0.282126
-0.191104
-0.0968085
0
0
0.0922521
0.183616
0.273213
0.360181
0.443682
0.522913
0.597112
0.665565
0.727613
0.782659
0.830175
0.869704
0.900865
0.923361
0.936975
0.941578
0.937128
0.923668
0.90133
0.870331
0.830973
0.783637
0.728781
0.666936
0.598703
0.524741
0.445767
0.362546
0.275885
0.186625
0.0956303
0.0037852
-0.0880183
-0.178888
-0.267938
-0.354302
-0.437135
-0.515628
-0.58901
-0.656559
-0.717607
-0.771547
-0.817837
-0.85601
-0.885671
-0.906506
-0.918282
-0.920852
-0.914151
-0.898201
-0.873108
-0.839062
-0.796333
-0.745268
-0.686288
-0.619885
-0.546611
-0.467077
-0.381944
-0.291918
-0.197738
-0.10017
0
0
0.0944228
0.187937
0.279642
0.368656
0.454122
0.535217
0.611162
0.681225
0.744733
0.801075
0.849709
0.890168
0.922063
0.945089
0.959024
0.963736
0.959181
0.945405
0.922542
0.890815
0.850531
0.802081
0.745935
0.682636
0.612798
0.537096
0.456265
0.371087
0.282387
0.191027
0.0978921
0.00388639
-0.0900769
-0.183084
-0.27423
-0.362626
-0.447408
-0.527748
-0.602858
-0.671997
-0.734482
-0.789692
-0.837073
-0.876145
-0.906506
-0.927833
-0.939889
-0.942521
-0.935665
-0.919342
-0.893662
-0.858817
-0.815085
-0.762821
-0.702456
-0.634491
-0.559494
-0.478088
-0.390952
-0.298805
-0.202405
-0.102535
0
0
0.095649
0.190377
0.283274
0.373444
0.460019
0.542168
0.619099
0.690073
0.754406
0.811479
0.860745
0.90173
0.934039
0.957364
0.97148
0.976254
0.97164
0.957685
0.934526
0.902387
0.861581
0.812503
0.755628
0.691507
0.620762
0.544078
0.462197
0.375913
0.286062
0.193516
0.0991715
0.00394504
-0.0912385
-0.185454
-0.277783
-0.367327
-0.453212
-0.534596
-0.610681
-0.680719
-0.744017
-0.799945
-0.847944
-0.887525
-0.918282
-0.939889
-0.952104
-0.954773
-0.94783
-0.931298
-0.905287
-0.869993
-0.825696
-0.772755
-0.711608
-0.642762
-0.566791
-0.484328
-0.396058
-0.30271
-0.205052
-0.103878
0
0
0.0959155
0.190908
0.284063
0.374484
0.461301
0.543679
0.620824
0.691995
0.756508
0.813741
0.863144
0.904243
0.936642
0.960032
0.974188
0.978975
0.974349
0.960356
0.937132
0.904904
0.863984
0.814769
0.757736
0.693438
0.622496
0.545598
0.463489
0.376965
0.286864
0.19406
0.0994526
0.00396071
-0.0914883
-0.185966
-0.278554
-0.368348
-0.454472
-0.536084
-0.612382
-0.682617
-0.746093
-0.802179
-0.850313
-0.890007
-0.920852
-0.942521
-0.954773
-0.957452
-0.950493
-0.933918
-0.907838
-0.872449
-0.828031
-0.774945
-0.713629
-0.644593
-0.56841
-0.485716
-0.397197
-0.303585
-0.205647
-0.104181
0
0
0.0952156
0.189515
0.28199
0.371752
0.457935
0.539712
0.616295
0.686947
0.750988
0.807803
0.856846
0.897645
0.929809
0.953028
0.967081
0.971833
0.967241
0.95335
0.930296
0.898303
0.857682
0.808827
0.75221
0.68838
0.617956
0.54162
0.46011
0.374217
0.284773
0.192646
0.0987289
0.00393339
-0.0908196
-0.184609
-0.276521
-0.365661
-0.451158
-0.532176
-0.607919
-0.677643
-0.740657
-0.796336
-0.844121
-0.883528
-0.914151
-0.935665
-0.94783
-0.950493
-0.943589
-0.927138
-0.901252
-0.866124
-0.822033
-0.769337
-0.708471
-0.639939
-0.564313
-0.48222
-0.394343
-0.301408
-0.204176
-0.103437
0
0
0.0935518
0.186203
0.277063
0.365256
0.449933
0.530281
0.605526
0.674943
0.737866
0.793688
0.841874
0.88196
0.913562
0.936375
0.950183
0.954852
0.95034
0.936692
0.914041
0.882607
0.842696
0.794694
0.739067
0.676353
0.607159
0.532156