# vtk DataFile Version 3.0
Scalar Field Data
ASCII
DATASET STRUCTURED_POINTS
DIMENSIONS 256 256 1
ORIGIN 0 0 0
SPACING 0.00390625 0.00390625 1
POINT_DATA 65536
SCALARS scalars double
LOOKUP_TABLE default
0
0
0
0
0
0
0
0
0
0
0
0
0
0
0
0
0
0
0
0
0
0
0
0
0
0
0
0
0
0
0
0
0
0
0
0
0
0
0
0
0
0
0
0
0
0
0
0
0
0
0
0
0
0
0
0
0
0
0
0
0
0
0
0
0
0
0
0
0
0
0
0
0
0
0
0
0
0
0
0
0
0
0
0
0
0
0
0
0
0
0
0
0
0
0
0
0
0
0
0
0
0
0
0
0
0
0
0
0
0
0
0
0
0
0
0
0
0
0
0
0
0
0
0
0
0
0
0
0
0
0
0
0
0
0
0
0
0
0
0
0
0
0
0
0
0
0
0
0
0
0
0
0
0
0
0
0
0
0
0
0
0
0
0
0
0
0
0
0
0
0
0
0
0
0
0
0
0
0
0
0
0
0
0
0
0
0
0
0
0
0
0
0
0
0
0
0
0
0
0
0
0
0
0
0
0
0
0
0
0
0
0
0
0
0
0
0
0
0
0
0
0
0
0
0
0
0
0
0
0
0
0
0
0
0
0
0
0
0
0
0
0
0
0
0
0
0
0
0
0
0
0
0
0
0
0
0
-0.000597315
-0.00119427
-0.00179051
-0.00238566
-0.00297938
-0.00357131
-0.00416108
-0.00474835
-0.00533276
-0.00591396
-0.00649159
-0.00706532
-0.00763479
-0.00819966
-0.00875959
-0.00931424
-0.00986329
-0.0104064
-0.0109432
-0.0114735
-0.0119968
-0.0125129
-0.0130215
-0.0135222
-0.0140148
-0.014499
-0.0149744
-0.0154408
-0.0158979
-0.0163454
-0.0167831
-0.0172106
-0.0176278
-0.0180344
-0.0184301
-0.0188147
-0.019188
-0.0195498
-0.0198997
-0.0202377
-0.0205635
-0.0208769
-0.0211777
-0.0214658
-0.0217409
-0.022003
-0.0222518
-0.0224872
-0.022709
-0.0229172
-0.0231116
-0.023292
-0.0234585
-0.0236108
-0.0237488
-0.0238726
-0.023982
-0.024077
-0.0241574
-0.0242233
-0.0242747
-0.0243114
-0.0243334
-0.0243408
-0.0243336
-0.0243117
-0.0242752
-0.024224
-0.0241583
-0.024078
-0.0239832
-0.0238739
-0.0237503
-0.0236124
-0.0234603
-0.023294
-0.0231137
-0.0229196
-0.0227116
-0.0224899
-0.0222547
-0.0220061
-0.0217442
-0.0214693
-0.0211814
-0.0208808
-0.0205676
-0.020242
-0.0199042
-0.0195545
-0.019193
-0.0188199
-0.0184355
-0.0180401
-0.0176337
-0.0172168
-0.0167895
-0.0163521
-0.0159048
-0.015448
-0.0149819
-0.0145067
-0.0140229
-0.0135306
-0.0130302
-0.0125219
-0.0120062
-0.0114832
-0.0109533
-0.0104168
-0.00987404
-0.00932537
-0.0087711
-0.00821156
-0.0076471
-0.00707804
-0.00650475
-0.00592756
-0.00534681
-0.00476287
-0.00417608
-0.0035868
-0.00299538
-0.00240218
-0.00180755
-0.00121187
-0.000615476
-1.87419e-05
0.000577976
0.00117432
0.00176992
0.00236443
0.00295749
0.00354873
0.0041378
0.00472435
0.00530801
0.00588844
0.00646529
0.00703821
0.00760685
0.00817087
0.00872993
0.00928368
0.00983181
0.010374
0.0109098
0.0114391
0.0119614
0.0124764
0.0129839
0.0134835
0.013975
0.0144579
0.0149321
0.0153973
0.0158531
0.0162993
0.0167356
0.0171618
0.0175776
0.0179827
0.0183769
0.01876
0.0191317
0.0194918
0.0198401
0.0201764
0.0205004
0.020812
0.021111
0.0213971
0.0216703
0.0219304
0.0221771
0.0224104
0.0226301
0.022836
0.0230281
0.0232062
0.0233703
0.0235201
0.0236556
0.0237768
0.0238836
0.0239758
0.0240534
0.0241165
0.0241648
0.0241985
0.0242175
0.0242217
0.0242112
0.0241859
0.0241459
0.0240912
0.0240218
0.0239378
0.0238392
0.0237261
0.0235985
0.0234564
0.0233001
0.0231295
0.0229448
0.022746
0.0225334
0.0223069
0.0220668
0.0218132
0.0215461
0.0212659
0.0209726
0.0206664
0.0203475
0.0200161
0.0196723
0.0193164
0.0189486
0.0185691
0.0181781
0.0177758
0.0173625
0.0169384
0.0165037
0.0160588
0.0156039
0.0151392
0.014665
0.0141815
0.0136892
0.0131882
0.0126789
0.0121614
0.0116363
0.0111037
0.0105639
0.0100173
0.00946421
0.00890492
0.00833977
0.00776908
0.00719318
0.00661241
0.00602711
0.0054376
0.00484425
0.00424737
0.00364733
0.00304447
0.00243913
0.00183166
0.00122242
0.000611747
0
0
-0.00119427
-0.00238782
-0.00357993
-0.00476989
-0.00595697
-0.00714047
-0.00831966
-0.00949384
-0.0106623
-0.0118244
-0.0129793
-0.0141264
-0.015265
-0.0163944
-0.0175139
-0.0186229
-0.0197206
-0.0208065
-0.0218799
-0.0229401
-0.0239864
-0.0250183
-0.0260352
-0.0270363
-0.0280212
-0.0289892
-0.0299397
-0.0308722
-0.0317862
-0.0326809
-0.033556
-0.0344109
-0.035245
-0.0360579
-0.0368492
-0.0376182
-0.0383645
-0.0390878
-0.0397875
-0.0404632
-0.0411146
-0.0417412
-0.0423427
-0.0429186
-0.0434688
-0.0439927
-0.0444901
-0.0449608
-0.0454044
-0.0458206
-0.0462092
-0.04657
-0.0469028
-0.0472073
-0.0474834
-0.0477308
-0.0479496
-0.0481394
-0.0483003
-0.0484321
-0.0485347
-0.0486081
-0.0486522
-0.048667
-0.0486525
-0.0486088
-0.0485357
-0.0484334
-0.0483019
-0.0481414
-0.0479519
-0.0477335
-0.0474863
-0.0472106
-0.0469064
-0.046574
-0.0462136
-0.0458253
-0.0454094
-0.0449662
-0.044496
-0.0439989
-0.0434753
-0.0429256
-0.04235
-0.041749
-0.0411228
-0.0404718
-0.0397965
-0.0390972
-0.0383744
-0.0376285
-0.03686
-0.0360693
-0.0352568
-0.0344232
-0.0335688
-0.0326943
-0.0318
-0.0308867
-0.0299547
-0.0290048
-0.0280373
-0.0270531
-0.0260525
-0.0250363
-0.0240051
-0.0229594
-0.0218999
-0.0208273
-0.0197421
-0.0186451
-0.0175369
-0.0164182
-0.0152896
-0.0141518
-0.0130056
-0.0118515
-0.0106904
-0.00952287
-0.00834964
-0.00717143
-0.00598895
-0.00480291
-0.00361402
-0.002423
-0.00123058
-3.74726e-05
0.0011556
0.00234793
0.00353878
0.00472744
0.00591319
0.00709532
0.00827311
0.00944585
0.0106128
0.0117733
0.0129267
0.0140722
0.0152091
0.0163368
0.0174546
0.0185618
0.0196577
0.0207417
0.0218131
0.0228712
0.0239155
0.0249453
0.02596
0.0269589
0.0279415
0.0289071
0.0298553
0.0307853
0.0316966
0.0325888
0.0334612
0.0343133
0.0351446
0.0359546
0.0367428
0.0375087
0.0382519
0.0389719
0.0396683
0.0403406
0.0409885
0.0416115
0.0422092
0.0427814
0.0433276
0.0438475
0.0443409
0.0448073
0.0452465
0.0456583
0.0460424
0.0463985
0.0467265
0.047026
0.047297
0.0475393
0.0477527
0.0479371
0.0480924
0.0482184
0.0483151
0.0483824
0.0484203
0.0484288
0.0484077
0.0483572
0.0482773
0.0481679
0.0480292
0.0478613
0.0476641
0.0474379
0.0471827
0.0468987
0.0465861
0.0462451
0.0458758
0.0454784
0.0450532
0.0446004
0.0441203
0.0436132
0.0430793
0.042519
0.0419325
0.0413203
0.0406827
0.0400201
0.0393328
0.0386212
0.0378858
0.037127
0.0363452
0.0355408
0.0347145
0.0338665
0.0329975
0.032108
0.0311983
0.0302692
0.0293211
0.0283545
0.0273701
0.0263685
0.0253501
0.0243156
0.0232655
0.0222006
0.0211214
0.0200286
0.0189227
0.0178045
0.0166745
0.0155335
0.014382
0.0132208
0.0120506
0.0108719
0.00968557
0.00849219
0.00729247
0.0060871
0.00487679
0.00366222
0.0024441
0.00122313
0
0
-0.00179051
-0.00357993
-0.0053672
-0.00715124
-0.00893097
-0.0107053
-0.0124732
-0.0142336
-0.0159854
-0.0177276
-0.0194591
-0.0211789
-0.022886
-0.0245792
-0.0262577
-0.0279203
-0.0295661
-0.0311941
-0.0328033
-0.0343928
-0.0359616
-0.0375086
-0.0390331
-0.0405341
-0.0420107
-0.043462
-0.0448871
-0.0462851
-0.0476553
-0.0489968
-0.0503087
-0.0515904
-0.052841
-0.0540598
-0.055246
-0.0563989
-0.0575179
-0.0586022
-0.0596512
-0.0606644
-0.0616409
-0.0625804
-0.0634821
-0.0643456
-0.0651704
-0.0659559
-0.0667017
-0.0674073
-0.0680724
-0.0686964
-0.069279
-0.06982
-0.0703189
-0.0707754
-0.0711893
-0.0715603
-0.0718883
-0.0721729
-0.0724141
-0.0726117
-0.0727655
-0.0728755
-0.0729417
-0.0729639
-0.0729422
-0.0728765
-0.072767
-0.0726136
-0.0724166
-0.0721759
-0.0718917
-0.0715643
-0.0711938
-0.0707804
-0.0703243
-0.069826
-0.0692856
-0.0687035
-0.06808
-0.0674155
-0.0667104
-0.0659652
-0.0651803
-0.0643561
-0.0634932
-0.062592
-0.0616532
-0.0606772
-0.0596648
-0.0586164
-0.0575327
-0.0564145
-0.0552622
-0.0540767
-0.0528587
-0.0516088
-0.0503279
-0.0490168
-0.0476761
-0.0463067
-0.0449095
-0.0434853
-0.0420349
-0.0405593
-0.0390592
-0.0375357
-0.0359896
-0.0344218
-0.0328334
-0.0312252
-0.0295983
-0.0279536
-0.0262922
-0.0246149
-0.0229229
-0.0212171
-0.0194986
-0.0177684
-0.0160276
-0.0142771
-0.0125182
-0.0107518
-0.00897892
-0.00720074
-0.00541831
-0.00363268
-0.00184495
-5.61807e-05
0.00173254
0.00352013
0.00530551
0.0070876
0.00886534
0.0106376
0.0124034
0.0141617
0.0159112
0.0176511
0.0193803
0.0210977
0.0228022
0.0244929
0.0261688
0.0278287
0.0294717
0.0310969
0.0327032
0.0342896
0.0358553
0.0373992
0.0389205
0.0404181
0.0418912
0.043339
0.0447604
0.0461547
0.0475211
0.0488586
0.0501666
0.0514441
0.0526904
0.0539048
0.0550865
0.0562348
0.0573491
0.0584285
0.0594726
0.0604805
0.0614518
0.0623859
0.0632821
0.0641399
0.0649588
0.0657383
0.0664779
0.0671772
0.0678357
0.0684531
0.0690289
0.0695628
0.0700545
0.0705036
0.07091
0.0712732
0.0715932
0.0718696
0.0721024
0.0722913
0.0724363
0.0725372
0.0725941
0.0726067
0.0725752
0.0724994
0.0723796
0.0722156
0.0720077
0.0717558
0.0714603
0.0711211
0.0707385
0.0703128
0.0698441
0.0693328
0.0687791
0.0681833
0.0675458
0.066867
0.0661472
0.0653869
0.0645865
0.0637464
0.0628672
0.0619494
0.0609935
0.06
0.0589695
0.0579027
0.0568002
0.0556625
0.0544904
0.0532845
0.0520456
0.0507743
0.0494715
0.0481378
0.046774
0.045381
0.0439596
0.0425105
0.0410346
0.0395328
0.038006
0.036455
0.0348808
0.0332842
0.0316662
0.0300278
0.0283698
0.0266933
0.0249992
0.0232885
0.0215622
0.0198213
0.0180668
0.0162997
0.0145211
0.0127319
0.0109332
0.00912607
0.00731151
0.00549057
0.00366431
0.00183377
0
0
-0.00238566
-0.00476989
-0.00715124
-0.00952829
-0.0118996
-0.0142637
-0.0166193
-0.0189648
-0.0212989
-0.0236202
-0.0259273
-0.0282187
-0.0304932
-0.0327493
-0.0349856
-0.0372009
-0.0393938
-0.0415629
-0.043707
-0.0458248
-0.047915
-0.0499764
-0.0520076
-0.0540075
-0.0559749
-0.0579086
-0.0598073
-0.0616701
-0.0634957
-0.0652831
-0.0670312
-0.0687389
-0.0704052
-0.072029
-0.0736095
-0.0751457
-0.0766366
-0.0780814
-0.0794791
-0.080829
-0.0821301
-0.0833818
-0.0845833
-0.0857339
-0.0868328
-0.0878794
-0.0888731
-0.0898133
-0.0906993
-0.0915308
-0.0923071
-0.0930279
-0.0936926
-0.0943009
-0.0948523
-0.0953467
-0.0957837
-0.0961629
-0.0964843
-0.0967475
-0.0969525
-0.0970991
-0.0971872
-0.0972168
-0.0971879
-0.0971004
-0.0969545
-0.0967501
-0.0964875
-0.0961669
-0.0957883
-0.095352
-0.0948583
-0.0943075
-0.0936999
-0.0930359
-0.0923158
-0.0915402
-0.0907095
-0.0898241
-0.0888847
-0.0878918
-0.0868459
-0.0857478
-0.084598
-0.0833974
-0.0821465
-0.0808461
-0.0794971
-0.0781003
-0.0766564
-0.0751664
-0.0736312
-0.0720516
-0.0704287
-0.0687634
-0.0670568
-0.0653098
-0.0635234
-0.0616989
-0.0598373
-0.0579396
-0.0560072
-0.054041
-0.0520423
-0.0500124
-0.0479524
-0.0458635
-0.0437471
-0.0416044
-0.0394367
-0.0372453
-0.0350316
-0.0327968
-0.0305423
-0.0282696
-0.0259798
-0.0236745
-0.0213551
-0.0190228
-0.0166792
-0.0143256
-0.0119635
-0.00959424
-0.00721933
-0.00484017
-0.0024582
-7.4855e-05
0.00230843
0.0046902
0.00706904
0.0094435
0.0118121
0.0141736
0.0165263
0.0188689
0.0212001
0.0235183
0.0258223
0.0281105
0.0303816
0.0326343
0.0348671
0.0370788
0.039268
0.0414334
0.0435736
0.0456874
0.0477735
0.0498306
0.0518575
0.0538529
0.0558157
0.0577447
0.0596386
0.0614964
0.0633169
0.0650991
0.0668417
0.0685439
0.0702045
0.0718226
0.0733971
0.0749271
0.0764117
0.0778499
0.079241
0.080584
0.0818782
0.0831227
0.0843168
0.0854597
0.0865509
0.0875895
0.0885749
0.0895067
0.0903841
0.0912067
0.0919739
0.0926853
0.0933404
0.0939388
0.0944802
0.0949642
0.0953905
0.0957588
0.0960689
0.0963207
0.0965139
0.0966483
0.096724
0.0967409
0.0966989
0.096598
0.0964383
0.0962198
0.0959428
0.0956072
0.0952134
0.0947615
0.0942518
0.0936845
0.0930601
0.0923788
0.091641
0.0908472
0.0899978
0.0890934
0.0881343
0.0871213
0.0860548
0.0849355
0.0837641
0.0825412
0.0812675
0.0799438
0.0785708
0.0771494
0.0756803
0.0741645
0.0726028
0.0709961
0.0693453
0.0676515
0.0659156
0.0641386
0.0623215
0.0604655
0.0585715
0.0566408
0.0546744
0.0526734
0.0506391
0.0485725
0.046475
0.0443478
0.042192
0.0400089
0.0377999
0.0355661
0.0333089
0.0310295
0.0287294
0.0264098
0.0240721
0.0217177
0.0193478
0.0169639
0.0145674
0.0121595
0.00974182
0.00731562
0.00488231
0.0024433
0
0
-0.00297938
-0.00595697
-0.00893097
-0.0118996
-0.014861
-0.0178136
-0.0207553
-0.0236846
-0.0265996
-0.0294986
-0.0323798
-0.0352415
-0.038082
-0.0408996
-0.0436925
-0.0464591
-0.0491977
-0.0519067
-0.0545844
-0.0572293
-0.0598397
-0.062414
-0.0649507
-0.0674484
-0.0699054
-0.0723203
-0.0746916
-0.077018
-0.0792979
-0.0815301
-0.0837132
-0.0858459
-0.0879269
-0.0899549
-0.0919288
-0.0938472
-0.0957092
-0.0975135
-0.0992591
-0.100945
-0.10257
-0.104133
-0.105634
-0.10707
-0.108443
-0.10975
-0.110991
-0.112165
-0.113272
-0.11431
-0.11528
-0.11618
-0.11701
-0.11777
-0.118458
-0.119076
-0.119621
-0.120095
-0.120496
-0.120825
-0.121081
-0.121264
-0.121374
-0.121411
-0.121375
-0.121266
-0.121084
-0.120828
-0.1205
-0.1201
-0.119627
-0.119082
-0.118466
-0.117778
-0.117019
-0.11619
-0.11529
-0.114322
-0.113284
-0.112179
-0.111005
-0.109765
-0.108459
-0.107088
-0.105652
-0.104152
-0.10259
-0.100966
-0.0992816
-0.0975371
-0.0957339
-0.0938731
-0.0919558
-0.0899831
-0.0879563
-0.0858766
-0.0837452
-0.0815634
-0.0793325
-0.0770539
-0.074729
-0.0723591
-0.0699457
-0.0674902
-0.0649941
-0.062459
-0.0598863
-0.0572776
-0.0546344
-0.0519585
-0.0492513
-0.0465146
-0.0437499
-0.0409589
-0.0381434
-0.035305
-0.0324454
-0.0295664
-0.0266697
-0.023757
-0.0208301
-0.0178908
-0.0149408
-0.011982
-0.00901601
-0.00604475
-0.00306997
-9.34843e-05
0.00288292
0.00585745
0.00882831
0.0117937
0.0147518
0.0177009
0.0206392
0.0235649
0.0264762
0.0293713
0.0322486
0.0351063
0.0379427
0.040756
0.0435445
0.0463067
0.0490407
0.0517449
0.0544178
0.0570576
0.0596629
0.0622319
0.0647632
0.0672553
0.0697066
0.0721156
0.0744809
0.076801
0.0790746
0.0813003
0.0834767
0.0856024
0.0876763
0.0896971
0.0916634
0.0935742
0.0954283
0.0972245
0.0989617
0.100639
0.102255
0.103809
0.105301
0.106728
0.108091
0.109388
0.110619
0.111782
0.112878
0.113905
0.114863
0.115752
0.11657
0.117317
0.117993
0.118598
0.11913
0.11959
0.119978
0.120292
0.120533
0.120701
0.120796
0.120817
0.120764
0.120638
0.120439
0.120166
0.11982
0.119401
0.118909
0.118345
0.117708
0.117
0.11622
0.115369
0.114448
0.113456
0.112396
0.111266
0.110068
0.108803
0.107471
0.106073
0.10461
0.103083
0.101493
0.0998394
0.0981247
0.0963496
0.0945149
0.0926218
0.0906714
0.0886649
0.0866033
0.084488
0.08232
0.0801008
0.0778315
0.0755136
0.0731483
0.070737
0.0682812
0.0657822
0.0632416
0.0606608
0.0580413
0.0553846
0.0526923
0.049966
0.0472071
0.0444174
0.0415984
0.0387519
0.0358793
0.0329825
0.030063
0.0271226
0.0241629
0.0211857
0.0181927
0.0151857
0.0121663
0.00913625
0.00609737
0.00305137
0
0
-0.00357131
-0.00714047
-0.0107053
-0.0142637
-0.0178136
-0.0213526
-0.0248789
-0.0283901
-0.0318843
-0.0353592
-0.0388128
-0.0422431
-0.0456479
-0.0490253
-0.0523731
-0.0556893
-0.058972
-0.0622192
-0.0654289
-0.0685992
-0.0717282
-0.074814
-0.0778548
-0.0808486
-0.0837938
-0.0866884
-0.0895309
-0.0923194
-0.0950524
-0.0977281
-0.100345
-0.102901
-0.105396
-0.107827
-0.110193
-0.112492
-0.114724
-0.116887
-0.118979
-0.121
-0.122948
-0.124822
-0.12662
-0.128343
-0.129988
-0.131554
-0.133042
-0.134449
-0.135776
-0.137021
-0.138183
-0.139262
-0.140257
-0.141167
-0.141993
-0.142733
-0.143387
-0.143955
-0.144436
-0.14483
-0.145137
-0.145356
-0.145488
-0.145532
-0.145489
-0.145358
-0.14514
-0.144834
-0.144441
-0.143961
-0.143394
-0.142741
-0.142002
-0.141177
-0.140268
-0.139274
-0.138196
-0.137035
-0.135791
-0.134466
-0.133059
-0.131573
-0.130007
-0.128363
-0.126642
-0.124845
-0.122972
-0.121026
-0.119006
-0.116915
-0.114754
-0.112523
-0.110225
-0.10786
-0.105431
-0.102938
-0.100383
-0.0977679
-0.0950938
-0.0923626
-0.0895757
-0.086735
-0.0838421
-0.0808987
-0.0779068
-0.0748679
-0.0717841
-0.0686571
-0.0654889
-0.0622813
-0.0590363
-0.0557558
-0.0524419
-0.0490964
-0.0457215
-0.0423192
-0.0388915
-0.0354405
-0.0319683
-0.0284769
-0.0249685
-0.0214452
-0.0179092
-0.0143625
-0.0108073
-0.00724568
-0.0036799
-0.000112057
0.00345569
0.00702118
0.0105823
0.0141368
0.0176826
0.0212176
0.0247397
0.0282466
0.0317363
0.0352067
0.0386556
0.042081
0.0454809
0.0488531
0.0521957
0.0555066
0.0587838
0.0620253
0.0652292
0.0683935
0.0715163
0.0745958
0.07763
0.0806172
0.0835555
0.0864431
0.0892783
0.0920594
0.0947847
0.0974525
0.100061
0.102609
0.105095
0.107518
0.109875
0.112165
0.114387
0.11654
0.118623
0.120633
0.122571
0.124434
0.126221
0.127932
0.129566
0.13112
0.132596
0.13399
0.135304
0.136535
0.137684
0.138749
0.139729
0.140625
0.141436
0.14216
0.142798
0.14335
0.143814
0.144191
0.14448
0.144681
0.144795
0.14482
0.144757
0.144606
0.144367
0.14404
0.143625
0.143123
0.142533
0.141857
0.141094
0.140245
0.13931
0.13829
0.137185
0.135997
0.134726
0.133372
0.131936
0.13042
0.128823
0.127147
0.125394
0.123563
0.121656
0.119675
0.11762
0.115492
0.113293
0.111023
0.108685
0.10628
0.103809
0.101274
0.0986749
0.0960147
0.0932946
0.0905161
0.0876809
0.0847906
0.0818469
0.0788515
0.0758061
0.0727125
0.0695726
0.0663881
0.0631609
0.0598929
0.0565859
0.053242
0.049863
0.0464508
0.0430076
0.0395352
0.0360357
0.0325111
0.0289635
0.0253948
0.0218072
0.0182027
0.0145834
0.0109514
0.00730876
0.0036576
0
0
-0.00416108
-0.00831966
-0.0124732
-0.0166193
-0.0207553
-0.0248789
-0.0289874
-0.0330785
-0.0371497
-0.0411985
-0.0452225
-0.0492192
-0.0531863
-0.0571214
-0.0610221
-0.064886
-0.0687108
-0.0724943
-0.076234
-0.0799279
-0.0835736
-0.087169
-0.0907119
-0.0942001
-0.0976317
-0.101004
-0.104316
-0.107565
-0.11075
-0.113867
-0.116916
-0.119895
-0.122801
-0.125633
-0.12839
-0.131069
-0.13367
-0.13619
-0.138628
-0.140982
-0.143252
-0.145435
-0.147531
-0.149537
-0.151454
-0.15328
-0.155013
-0.156653
-0.158198
-0.159648
-0.161003
-0.16226
-0.163419
-0.16448
-0.165442
-0.166304
-0.167066
-0.167728
-0.168288
-0.168747
-0.169105
-0.169361
-0.169514
-0.169566
-0.169516
-0.169363
-0.169108
-0.168752
-0.168294
-0.167735
-0.167074
-0.166313
-0.165452
-0.164492
-0.163432
-0.162274
-0.161018
-0.159665
-0.158216
-0.156672
-0.155033
-0.153301
-0.151477
-0.149562
-0.147556
-0.145462
-0.14328
-0.141012
-0.138659
-0.136223
-0.133704
-0.131106
-0.128428
-0.125673
-0.122842
-0.119937
-0.116961
-0.113914
-0.110798
-0.107616
-0.104368
-0.101059
-0.0976879
-0.0942585
-0.0907725
-0.0872318
-0.0836387
-0.0799953
-0.0763039
-0.0725666
-0.0687857
-0.0649635
-0.0611022
-0.0572043
-0.0532721
-0.0493079
-0.0453141
-0.0412932
-0.0372476
-0.0331797
-0.0290919
-0.0249868
-0.0208667
-0.0167343
-0.012592
-0.00844225
-0.0042876
-0.000130563
0.00402637
0.00818067
0.0123298
0.0164714
0.0206028
0.0247216
0.0288252
0.0329113
0.0369773
0.0410208
0.0450393
0.0490304
0.0529917
0.0569209
0.0608154
0.0646731
0.0684915
0.0722683
0.0760013
0.0796882
0.0833267
0.0869147
0.09045
0.0939305
0.097354
0.100718
0.104022
0.107262
0.110438
0.113546
0.116586
0.119555
0.122451
0.125273
0.128019
0.130688
0.133278
0.135786
0.138213
0.140555
0.142812
0.144983
0.147066
0.149059
0.150962
0.152774
0.154493
0.156118
0.157648
0.159083
0.160421
0.161662
0.162805
0.163848
0.164793
0.165637
0.16638
0.167023
0.167564
0.168003
0.16834
0.168574
0.168707
0.168736
0.168663
0.168487
0.168208
0.167827
0.167344
0.166759
0.166072
0.165283
0.164394
0.163405
0.162316
0.161127
0.159841
0.158456
0.156975
0.155397
0.153724
0.151957
0.150097
0.148145
0.146102
0.143969
0.141747
0.139438
0.137044
0.134564
0.132002
0.129358
0.126634
0.123832
0.120952
0.117998
0.11497
0.111871
0.108702
0.105464
0.102161
0.0987931
0.0953633
0.0918732
0.0883249
0.0847205
0.081062
0.0773516
0.0735915
0.0697838
0.0659307
0.0620345
0.0580975
0.0541219
0.05011
0.0460642
0.0419867
0.0378801
0.0337465
0.0295885
0.0254085
0.0212087
0.0169917
0.0127599
0.00851575
0.00426162
0
0
-0.00474835
-0.00949384
-0.0142336
-0.0189648
-0.0236846
-0.0283901
-0.0330785
-0.037747
-0.0423928
-0.047013
-0.0516049
-0.0561657
-0.0606927
-0.0651831
-0.0696343
-0.0740436
-0.0784082
-0.0827256
-0.0869932
-0.0912084
-0.0953687
-0.0994715
-0.103514
-0.107495
-0.111411
-0.115259
-0.119039
-0.122746
-0.12638
-0.129938
-0.133417
-0.136816
-0.140132
-0.143364
-0.14651
-0.149568
-0.152535
-0.155411
-0.158193
-0.16088
-0.163469
-0.165961
-0.168352
-0.170642
-0.172829
-0.174913
-0.17689
-0.178762
-0.180525
-0.18218
-0.183725
-0.18516
-0.186483
-0.187694
-0.188791
-0.189775
-0.190645
-0.1914
-0.192039
-0.192563
-0.192971
-0.193263
-0.193439
-0.193497
-0.19344
-0.193266
-0.192975
-0.192569
-0.192046
-0.191408
-0.190654
-0.189786
-0.188803
-0.187707
-0.186497
-0.185176
-0.183743
-0.182199
-0.180545
-0.178783
-0.176914
-0.174937
-0.172856
-0.17067
-0.168381
-0.165992
-0.163502
-0.160914
-0.158229
-0.155448
-0.152575
-0.149609
-0.146553
-0.143409
-0.140179
-0.136865
-0.133468
-0.129991
-0.126435
-0.122804
-0.119098
-0.115321
-0.111475
-0.107562
-0.103584
-0.0995431
-0.0954429
-0.0912854
-0.0870729
-0.0828082
-0.0784936
-0.074132
-0.0697258
-0.0652778
-0.0607906
-0.0562669
-0.0517095
-0.0471211
-0.0425045
-0.0378624
-0.0331977
-0.0285132
-0.0238117
-0.0190961
-0.0143691
-0.00963373
-0.00489273
-0.00014899
0.00459462
0.00933524
0.01407
0.0187961
0.0235105
0.0282106
0.0328934
0.0375562
0.042196
0.0468102
0.0513958
0.0559503
0.0604707
0.0649543
0.0693985
0.0738006
0.0781579
0.0824678
0.0867276
0.0909348
0.0950869
0.0991813
0.103216
0.107187
0.111094
0.114933
0.118703
0.122401
0.126024
0.129571
0.13304
0.136428
0.139733
0.142953
0.146087
0.149133
0.152088
0.15495
0.157719
0.160392
0.162968
0.165445
0.167822
0.170097
0.172268
0.174335
0.176297
0.178151
0.179898
0.181535
0.183062
0.184478
0.185782
0.186973
0.188051
0.189014
0.189862
0.190595
0.191213
0.191714
0.192098
0.192366
0.192517
0.19255
0.192467
0.192266
0.191948
0.191513
0.190962
0.190294
0.18951
0.18861
0.187596
0.186467
0.185224
0.183868
0.1824
0.18082
0.179129
0.177329
0.17542
0.173404
0.171281
0.169053
0.166722
0.164287
0.161752
0.159118
0.156385
0.153556
0.150632
0.147615
0.144506
0.141308
0.138023
0.134652
0.131196
0.12766
0.124043
0.120349
0.116579
0.112736
0.108822
0.10484
0.10079
0.0966774
0.0925025
0.0882685
0.0839777
0.0796326
0.0752357
0.0707897
0.066297
0.0617603
0.0571822
0.0525654
0.0479125
0.0432262
0.0385093
0.0337645
0.0289945
0.024202
0.0193898
0.0145608
0.0097176
0.00486308
0
0
-0.00533276
-0.0106623
-0.0159854
-0.0212989
-0.0265996
-0.0318843
-0.0371497
-0.0423928
-0.0476103
-0.0527992
-0.0579562
-0.0630784
-0.0681625
-0.0732056
-0.0782046
-0.0831566
-0.0880584
-0.0929072
-0.0977
-0.102434
-0.107106
-0.111714
-0.116255
-0.120725
-0.125123
-0.129445
-0.13369
-0.137854
-0.141934
-0.14593
-0.149837
-0.153655
-0.157379
-0.161009
-0.164542
-0.167976
-0.171309
-0.174538
-0.177663
-0.18068
-0.183589
-0.186387
-0.189072
-0.191644
-0.194101
-0.19644
-0.198661
-0.200763
-0.202744
-0.204602
-0.206338
-0.207949
-0.209435
-0.210794
-0.212027
-0.213132
-0.214109
-0.214957
-0.215675
-0.216263
-0.216722
-0.217049
-0.217246
-0.217312
-0.217248
-0.217052
-0.216726
-0.216269
-0.215682
-0.214965
-0.214119
-0.213144
-0.21204
-0.210809
-0.209451
-0.207967
-0.206357
-0.204623
-0.202766
-0.200787
-0.198687
-0.196468
-0.19413
-0.191675
-0.189105
-0.186421
-0.183625
-0.180718
-0.177703
-0.17458
-0.171353
-0.168022
-0.164591
-0.16106
-0.157432
-0.153709
-0.149894
-0.145989
-0.141996
-0.137918
-0.133756
-0.129515
-0.125195
-0.1208
-0.116332
-0.111795
-0.10719
-0.10252
-0.0977895
-0.0929999
-0.0881543
-0.0832559
-0.0783074
-0.0733119
-0.0682724
-0.063192
-0.0580737
-0.0529206
-0.0477358
-0.0425224
-0.0372836
-0.0320225
-0.0267424
-0.0214464
-0.0161376
-0.0108194
-0.00549491
-0.000167327
0.00516011
0.0104842
0.0158017
0.0211094
0.0264041
0.0316827
0.0369418
0.0421784
0.0473893
0.0525714
0.0577214
0.0628364
0.0679131
0.0729486
0.0779398
0.0828837
0.0877773
0.0926176
0.0974017
0.102127
0.10679
0.111388
0.115919
0.120379
0.124767
0.129079
0.133312
0.137465
0.141535
0.145518
0.149414
0.153219
0.156931
0.160548
0.164067
0.167487
0.170806
0.174021
0.17713
0.180132
0.183025
0.185807
0.188476
0.191031
0.19347
0.195792
0.197995
0.200078
0.202039
0.203878
0.205593
0.207183
0.208647
0.209985
0.211195
0.212277
0.21323
0.214053
0.214746
0.215309
0.215741
0.216042
0.216211
0.216249
0.216155
0.215929
0.215572
0.215084
0.214464
0.213714
0.212834
0.211824
0.210684
0.209417
0.208021
0.206498
0.204849
0.203074
0.201175
0.199154
0.19701
0.194745
0.192361
0.18986
0.187241
0.184507
0.18166
0.178701
0.175632
0.172455
0.169171
0.165783
0.162292
0.1587
0.15501
0.151224
0.147344
0.143371
0.13931
0.135161
0.130927
0.126611
0.122216
0.117743
0.113195
0.108576
0.103887
0.0991322
0.0943133
0.0894334
0.0844954
0.0795022
0.0744565
0.0693615
0.0642199
0.0590349
0.0538094
0.0485463
0.0432489
0.0379201
0.032563
0.0271807
0.0217763
0.0163529
0.0109136
0.00546161
0
0
-0.00591396
-0.0118244
-0.0177276
-0.0236202
-0.0294986
-0.0353592
-0.0411985
-0.047013
-0.0527992
-0.0585535
-0.0642726
-0.069953
-0.0755913
-0.081184
-0.0867279
-0.0922195
-0.0976555
-0.103033
-0.108348
-0.113598
-0.118779
-0.123889
-0.128925
-0.133882
-0.138759
-0.143553
-0.14826
-0.152878
-0.157403
-0.161834
-0.166167
-0.170401
-0.174531
-0.178557
-0.182475
-0.186283
-0.189979
-0.19356
-0.197025
-0.200372
-0.203597
-0.2067
-0.209679
-0.212531
-0.215255
-0.217849
-0.220313
-0.222643
-0.22484
-0.226901
-0.228825
-0.230612
-0.23226
-0.233768
-0.235135
-0.236361
-0.237444
-0.238384
-0.23918
-0.239833
-0.240341
-0.240705
-0.240923
-0.240996
-0.240925
-0.240708
-0.240346
-0.23984
-0.239189
-0.238394
-0.237455
-0.236374
-0.23515
-0.233784
-0.232278
-0.230632
-0.228847
-0.226924
-0.224865
-0.22267
-0.220341
-0.21788
-0.215287
-0.212565
-0.209715
-0.206739
-0.203638
-0.200414
-0.19707
-0.193607
-0.190028
-0.186334
-0.182529
-0.178613
-0.17459
-0.170462
-0.166231
-0.1619
-0.157472
-0.152949
-0.148334
-0.14363
-0.138839
-0.133965
-0.129011
-0.123979
-0.118872
-0.113694
-0.108447
-0.103136
-0.0977619
-0.0923296
-0.0868418
-0.0813019
-0.0757132
-0.0700791
-0.0644029
-0.0586882
-0.0529383
-0.0471567
-0.041347
-0.0355125
-0.0296569
-0.0237837
-0.0178964
-0.0119986
-0.00609378
-0.000185564
0.00572249
0.0116268
0.0175238
0.02341
0.0292818
0.0351356
0.040968
0.0467753
0.0525541
0.0583009
0.0640123
0.0696847
0.0753147
0.080899
0.0864342
0.0919169
0.0973438
0.102712
0.108017
0.113257
0.118428
0.123528
0.128552
0.133499
0.138365
0.143147
0.147842
0.152447
0.15696
0.161378
0.165698
0.169917
0.174034
0.178045
0.181948
0.185741
0.189421
0.192987
0.196435
0.199764
0.202973
0.206058
0.209018
0.211851
0.214556
0.217131
0.219574
0.221883
0.224058
0.226097
0.227999
0.229763
0.231387
0.23287
0.234212
0.235412
0.236469
0.237382
0.238151
0.238775
0.239254
0.239587
0.239775
0.239817
0.239712
0.239462
0.239066
0.238525
0.237838
0.237006
0.23603
0.23491
0.233646
0.23224
0.230692
0.229003
0.227174
0.225206
0.223101
0.220859
0.218481
0.21597
0.213326
0.210552
0.207648
0.204616
0.201459
0.198177
0.194774
0.19125
0.187608
0.183851
0.179979
0.175996
0.171904
0.167705
0.163402
0.158997
0.154492
0.149891
0.145196
0.14041
0.135535
0.130575
0.125532
0.120409
0.11521
0.109936
0.104592
0.0991804
0.0937043
0.0881668
0.0825713
0.0769209
0.071219
0.0654689
0.0596738
0.0538372
0.0479624
0.0420528
0.0361119
0.030143
0.0241496
0.0181351
0.012103
0.00605685
0
0
-0.00649159
-0.0129793
-0.0194591
-0.0259273
-0.0323798
-0.0388128
-0.0452225
-0.0516049
-0.0579562
-0.0642726
-0.0705504
-0.0767856
-0.0829745
-0.0891135
-0.0951988
-0.101227
-0.107194
-0.113096
-0.118931
-0.124693
-0.130381
-0.13599
-0.141517
-0.146959
-0.152312
-0.157574
-0.162741
-0.16781
-0.172777
-0.177641
-0.182398
-0.187044
-0.191578
-0.195997
-0.200298
-0.204478
-0.208535
-0.212466
-0.216269
-0.219942
-0.223483
-0.226889
-0.230158
-0.233289
-0.236279
-0.239127
-0.241831
-0.24439
-0.246801
-0.249063
-0.251176
-0.253137
-0.254946
-0.256601
-0.258101
-0.259447
-0.260636
-0.261668
-0.262542
-0.263258
-0.263816
-0.264215
-0.264455
-0.264535
-0.264457
-0.264219
-0.263821
-0.263265
-0.262551
-0.261678
-0.260648
-0.259461
-0.258118
-0.256619
-0.254965
-0.253159
-0.251199
-0.249089
-0.246828
-0.244419
-0.241863
-0.239161
-0.236315
-0.233327
-0.230198
-0.226931
-0.223528
-0.219989
-0.216318
-0.212518
-0.208589
-0.204534
-0.200357
-0.196059
-0.191643
-0.187111
-0.182467
-0.177713
-0.172853
-0.167888
-0.162822
-0.157659
-0.1524
-0.14705
-0.141612
-0.136088
-0.130482
-0.124799
-0.11904
-0.113209
-0.107311
-0.101348
-0.0953239
-0.0892429
-0.0831083
-0.0769239
-0.0706933
-0.0644204
-0.0581089
-0.0517627
-0.0453855
-0.0389812
-0.0325536
-0.0261068
-0.0196444
-0.0131705
-0.00668898
-0.000203689
0.00628142
0.0127624
0.0192355
0.0256966
0.0321419
0.0385674
0.0449694
0.051344
0.0576872
0.0639954
0.0702645
0.076491
0.082671
0.0888007
0.0948765
0.100895
0.106852
0.112744
0.118567
0.124319
0.129996
0.135593
0.141109
0.146538
0.151879
0.157128
0.162282
0.167337
0.172291
0.17714
0.181882
0.186514
0.191032
0.195435
0.19972
0.203883
0.207923
0.211836
0.215622
0.219276
0.222798
0.226184
0.229433
0.232543
0.235512
0.238338
0.24102
0.243555
0.245943
0.248181
0.250269
0.252204
0.253987
0.255615
0.257089
0.258406
0.259566
0.260568
0.261412
0.262097
0.262622
0.262988
0.263194
0.26324
0.263126
0.262851
0.262417
0.261822
0.261068
0.260155
0.259084
0.257854
0.256467
0.254924
0.253224
0.251371
0.249363
0.247203
0.244892
0.242431
0.239821
0.237064
0.234162
0.231117
0.227929
0.224602
0.221136
0.217534
0.213798
0.20993
0.205933
0.201808
0.197558
0.193186
0.188695
0.184086
0.179362
0.174527
0.169582
0.164532
0.159378
0.154124
0.148774
0.143329
0.137793
0.13217
0.126463
0.120674
0.114808
0.108868
0.102857
0.0967783
0.0906363
0.084434
0.0781752
0.0718634
0.0655024
0.0590957
0.0526471
0.0461603
0.039639
0.0330871
0.0265083
0.0199064
0.0132852
0.00664844
0
0
-0.00706532
-0.0141264
-0.0211789
-0.0282187
-0.0352415
-0.0422431
-0.0492192
-0.0561657
-0.0630784
-0.069953
-0.0767856
-0.0835719
-0.0903078
-0.0969894
-0.103612
-0.110173
-0.116668
-0.123092
-0.129442
-0.135714
-0.141904
-0.148009
-0.154024
-0.159947
-0.165774
-0.1715
-0.177124
-0.182641
-0.188047
-0.193341
-0.198518
-0.203575
-0.20851
-0.213319
-0.218
-0.22255
-0.226965
-0.231244
-0.235383
-0.239381
-0.243234
-0.246941
-0.2505
-0.253907
-0.257162
-0.260261
-0.263204
-0.265989
-0.268613
-0.271075
-0.273374
-0.275509
-0.277477
-0.279279
-0.280912
-0.282376
-0.28367
-0.284794
-0.285745
-0.286525
-0.287132
-0.287566
-0.287827
-0.287915
-0.287829
-0.28757
-0.287138
-0.286533
-0.285755
-0.284805
-0.283684
-0.282392
-0.28093
-0.279299
-0.277499
-0.275533
-0.2734
-0.271103
-0.268643
-0.266021
-0.263239
-0.260298
-0.257201
-0.253948
-0.250543
-0.246987
-0.243283
-0.239432
-0.235437
-0.2313
-0.227024
-0.222611
-0.218064
-0.213386
-0.20858
-0.203648
-0.198594
-0.19342
-0.188129
-0.182726
-0.177213
-0.171593
-0.165869
-0.160046
-0.154127
-0.148115
-0.142014
-0.135828
-0.12956
-0.123215