# vtk DataFile Version 3.0
Scalar Field Data
ASCII
DATASET STRUCTURED_POINTS
DIMENSIONS 250 250 1
ORIGIN 0 0 0
SPACING 0.004 0.004 1
POINT_DATA 62500
SCALARS scalars double
LOOKUP_TABLE default
0
0
0
0
0
0
0
0
0
0
0
0
0
0
0
0
0
0
0
0
0
0
0
0
0
0
0
0
0
0
0
0
0
0
0
0
0
0
0
0
0
0
0
0
0
0
0
0
0
0
0
0
0
0
0
0
0
0
0
0
0
0
0
0
0
0
0
0
0
0
0
0
0
0
0
0
0
0
0
0
0
0
0
0
0
0
0
0
0
0
0
0
0
0
0
0
0
0
0
0
0
0
0
0
0
0
0
0
0
0
0
0
0
0
0
0
0
0
0
0
0
0
0
0
0
0
0
0
0
0
0
0
0
0
0
0
0
0
0
0
0
0
0
0
0
0
0
0
0
0
0
0
0
0
0
0
0
0
0
0
0
0
0
0
0
0
0
0
0
0
0
0
0
0
0
0
0
0
0
0
0
0
0
0
0
0
0
0
0
0
0
0
0
0
0
0
0
0
0
0
0
0
0
0
0
0
0
0
0
0
0
0
0
0
0
0
0
0
0
0
0
0
0
0
0
0
0
0
0
0
0
0
0
0
0
0
0
0
0
0
0
0
0
0
0
0
0
0
0
0
0
-0.000626663
-0.00125293
-0.00187841
-0.0025027
-0.0031254
-0.00374614
-0.00436451
-0.00498012
-0.00559259
-0.00620152
-0.00680654
-0.00740726
-0.00800331
-0.00859429
-0.00917985
-0.00975961
-0.0103332
-0.0109003
-0.0114605
-0.0120134
-0.0125588
-0.0130962
-0.0136254
-0.0141459
-0.0146576
-0.0151599
-0.0156527
-0.0161356
-0.0166083
-0.0170706
-0.017522
-0.0179624
-0.0183914
-0.0188088
-0.0192144
-0.0196078
-0.0199888
-0.0203572
-0.0207128
-0.0210552
-0.0213844
-0.0217
-0.022002
-0.0222901
-0.0225641
-0.0228238
-0.0230691
-0.0232999
-0.0235159
-0.0237171
-0.0239033
-0.0240744
-0.0242304
-0.024371
-0.0244962
-0.024606
-0.0247002
-0.0247788
-0.0248418
-0.0248891
-0.0249206
-0.0249365
-0.0249366
-0.0249209
-0.0248895
-0.0248424
-0.0247796
-0.0247012
-0.0246071
-0.0244976
-0.0243725
-0.0242321
-0.0240764
-0.0239054
-0.0237194
-0.0235184
-0.0233026
-0.023072
-0.0228269
-0.0225674
-0.0222936
-0.0220057
-0.021704
-0.0213886
-0.0210596
-0.0207174
-0.0203621
-0.0199939
-0.0196131
-0.01922
-0.0188147
-0.0183975
-0.0179688
-0.0175287
-0.0170775
-0.0166156
-0.0161431
-0.0156605
-0.015168
-0.014666
-0.0141547
-0.0136345
-0.0131057
-0.0125686
-0.0120236
-0.011471
-0.0109112
-0.0103445
-0.00977133
-0.00919198
-0.00860685
-0.0080163
-0.00742071
-0.00682045
-0.00621591
-0.00560746
-0.0049955
-0.0043804
-0.00376256
-0.00314237
-0.00252023
-0.00189652
-0.00127163
-0.000645979
-1.99444e-05
0.000606072
0.00123167
0.00185647
0.00248005
0.00310204
0.00372203
0.00433964
0.00495446
0.00556612
0.00617423
0.00677839
0.00737823
0.00797337
0.00856343
0.00914803
0.00972681
0.0102994
0.0108654
0.0114246
0.0119764
0.0125206
0.0130569
0.0135849
0.0141042
0.0146146
0.0151157
0.0156071
0.0160886
0.01656
0.0170207
0.0174707
0.0179096
0.018337
0.0187528
0.0191567
0.0195484
0.0199277
0.0202943
0.020648
0.0209886
0.0213158
0.0216295
0.0219294
0.0222154
0.0224872
0.0227447
0.0229877
0.0232162
0.0234298
0.0236285
0.0238122
0.0239807
0.024134
0.0242718
0.0243942
0.0245011
0.0245923
0.0246679
0.0247278
0.0247718
0.0248001
0.0248126
0.0248092
0.0247899
0.0247549
0.024704
0.0246374
0.024555
0.0244569
0.0243431
0.0242138
0.024069
0.0239087
0.0237332
0.0235424
0.0233365
0.0231157
0.02288
0.0226296
0.0223647
0.0220854
0.0217919
0.0214843
0.0211629
0.0208278
0.0204792
0.0201175
0.0197427
0.0193551
0.018955
0.0185425
0.018118
0.0176817
0.0172339
0.0167748
0.0163048
0.015824
0.0153329
0.0148316
0.0143206
0.0138001
0.0132704
0.0127318
0.0121848
0.0116296
0.0110666
0.010496
0.00991833
0.00933384
0.00874291
0.00814589
0.00754316
0.00693508
0.00632201
0.00570433
0.00508241
0.00445662
0.00382736
0.00319499
0.0025599
0.00192247
0.00128309
0.000642135
0
0
-0.00125293
-0.00250507
-0.00375563
-0.00500381
-0.00624884
-0.00748991
-0.00872626
-0.0099571
-0.0111816
-0.0123991
-0.0136088
-0.0148098
-0.0160016
-0.0171832
-0.0183539
-0.0195131
-0.0206599
-0.0217937
-0.0229137
-0.0240193
-0.0251096
-0.0261842
-0.0272422
-0.0282829
-0.0293059
-0.0303103
-0.0312955
-0.032261
-0.0332062
-0.0341303
-0.0350329
-0.0359134
-0.0367712
-0.0376058
-0.0384166
-0.0392032
-0.039965
-0.0407016
-0.0414124
-0.0420971
-0.0427553
-0.0433864
-0.0439901
-0.0445661
-0.0451139
-0.0456332
-0.0461237
-0.046585
-0.047017
-0.0474192
-0.0477916
-0.0481337
-0.0484454
-0.0487266
-0.0489769
-0.0491964
-0.0493848
-0.049542
-0.0496679
-0.0497624
-0.0498255
-0.0498572
-0.0498574
-0.0498261
-0.0497633
-0.0496691
-0.0495436
-0.0493867
-0.0491987
-0.0489796
-0.0487296
-0.0484489
-0.0481375
-0.0477958
-0.0474238
-0.047022
-0.0465904
-0.0461295
-0.0456394
-0.0451205
-0.0445731
-0.0439976
-0.0433943
-0.0427636
-0.0421059
-0.0414217
-0.0407113
-0.0399752
-0.0392139
-0.0384278
-0.0376175
-0.0367834
-0.0359262
-0.0350462
-0.0341442
-0.0332206
-0.0322761
-0.0313112
-0.0303265
-0.0293227
-0.0283005
-0.0272604
-0.0262031
-0.0251292
-0.0240396
-0.0229348
-0.0218155
-0.0206825
-0.0195365
-0.0183782
-0.0172083
-0.0160275
-0.0148367
-0.0136366
-0.0124279
-0.0112114
-0.00998784
-0.00875804
-0.00752275
-0.00628276
-0.00503886
-0.00379183
-0.00254247
-0.00129155
-3.98761e-05
0.00121176
0.00246257
0.00371176
0.00495854
0.00620212
0.00744171
0.00867653
0.0099058
0.0111287
0.0123446
0.0135525
0.0147518
0.0159417
0.0171214
0.0182903
0.0194475
0.0205923
0.021724
0.0228419
0.0239453
0.0250334
0.0261056
0.0271612
0.0281995
0.0292199
0.0302218
0.0312044
0.0321671
0.0331095
0.0340307
0.0349304
0.0358078
0.0366625
0.0374938
0.0383014
0.0390845
0.0398429
0.0405758
0.041283
0.041964
0.0426182
0.0432453
0.043845
0.0444167
0.0449602
0.045475
0.045961
0.0464177
0.0468448
0.0472421
0.0476094
0.0479463
0.0482527
0.0485283
0.0487731
0.0489867
0.0491692
0.0493203
0.0494399
0.049528
0.0495845
0.0496094
0.0496027
0.0495642
0.0494941
0.0493924
0.0492592
0.0490944
0.0488983
0.0486709
0.0484123
0.0481227
0.0478024
0.0474514
0.04707
0.0466584
0.0462168
0.0457456
0.045245
0.0447153
0.0441568
0.0435699
0.042955
0.0423123
0.0416424
0.0409456
0.0402222
0.0394729
0.038698
0.037898
0.0370734
0.0362246
0.0353523
0.0344569
0.0335391
0.0325992
0.031638
0.030656
0.0296539
0.0286321
0.0275914
0.0265324
0.0254557
0.0243619
0.0232519
0.0221261
0.0209854
0.0198304
0.0186618
0.0174803
0.0162866
0.0150816
0.0138658
0.01264
0.011405
0.0101616
0.00891043
0.0076523
0.00638796
0.00511818
0.00384372
0.00256536
0.00128386
0
0
-0.00187841
-0.00375563
-0.00563047
-0.00750177
-0.00936832
-0.011229
-0.0130825
-0.0149278
-0.0167636
-0.0185889
-0.0204024
-0.0222031
-0.0239897
-0.0257612
-0.0275164
-0.0292542
-0.0309735
-0.0326733
-0.0343525
-0.0360099
-0.0376446
-0.0392556
-0.0408417
-0.0424021
-0.0439356
-0.0454415
-0.0469186
-0.0483661
-0.049783
-0.0511686
-0.0525217
-0.0538418
-0.0551278
-0.056379
-0.0575946
-0.0587738
-0.0599159
-0.0610202
-0.062086
-0.0631125
-0.0640991
-0.0650453
-0.0659505
-0.0668139
-0.0676352
-0.0684137
-0.0691491
-0.0698408
-0.0704884
-0.0710914
-0.0716496
-0.0721625
-0.0726299
-0.0730514
-0.0734267
-0.0737557
-0.0740381
-0.0742738
-0.0744626
-0.0746043
-0.074699
-0.0747464
-0.0747467
-0.0746998
-0.0746057
-0.0744645
-0.0742762
-0.0740411
-0.0737592
-0.0734308
-0.073056
-0.0726351
-0.0721683
-0.0716559
-0.0710983
-0.0704958
-0.0698488
-0.0691578
-0.068423
-0.0676451
-0.0668244
-0.0659616
-0.0650572
-0.0641116
-0.0631256
-0.0620998
-0.0610348
-0.0599312
-0.0587898
-0.0576114
-0.0563965
-0.0551461
-0.0538609
-0.0525417
-0.0511893
-0.0498047
-0.0483886
-0.046942
-0.0454658
-0.043961
-0.0424284
-0.040869
-0.0392839
-0.037674
-0.0360404
-0.0343841
-0.0327061
-0.0310074
-0.0292893
-0.0275527
-0.0257988
-0.0240287
-0.0222434
-0.0204441
-0.018632
-0.0168082
-0.0149739
-0.0131301
-0.0112782
-0.00941919
-0.00755432
-0.00568476
-0.00381169
-0.0019363
-5.97827e-05
0.00181669
0.00369191
0.00556471
0.0074339
0.00929828
0.0111567
0.0130079
0.0148509
0.0166843
0.0185071
0.020318
0.0221161
0.0239
0.0256687
0.027421
0.0291559
0.0308722
0.0325689
0.0342448
0.035899
0.0375303
0.0391378
0.0407203
0.042277
0.0438068
0.0453088
0.0467819
0.0482253
0.0496381
0.0510192
0.052368
0.0536834
0.0549648
0.0562112
0.0574218
0.0585959
0.0597328
0.0608317
0.0618919
0.0629128
0.0638936
0.0648339
0.0657328
0.06659
0.0674048
0.0681767
0.0689052
0.0695898
0.0702302
0.0708259
0.0713765
0.0718816
0.0723409
0.0727542
0.0731211
0.0734414
0.0737149
0.0739414
0.0741208
0.0742529
0.0743377
0.074375
0.0743648
0.0743072
0.0742021
0.0740497
0.0738499
0.0736029
0.0733088
0.0729679
0.0725802
0.0721461
0.0716658
0.0711396
0.0705678
0.0699507
0.0692887
0.0685823
0.0678317
0.0670376
0.0662004
0.0653205
0.0643986
0.0634351
0.0624307
0.061386
0.0603016
0.0591782
0.0580164
0.0568171
0.0555808
0.0543084
0.0530006
0.0516582
0.0502821
0.0488731
0.0474321
0.0459599
0.0444574
0.0429255
0.0413653
0.0397776
0.0381634
0.0365237
0.0348594
0.0331717
0.0314615
0.0297299
0.0279779
0.0262066
0.0244171
0.0226104
0.0207877
0.0189501
0.0170986
0.0152344
0.0133586
0.0114724
0.00957689
0.00767322
0.00576255
0.00384602
0.00192478
0
0
-0.0025027
-0.00500381
-0.00750177
-0.00999498
-0.0124819
-0.0149609
-0.0174305
-0.019889
-0.022335
-0.0247669
-0.0271832
-0.0295823
-0.0319627
-0.0343229
-0.0366615
-0.0389768
-0.0412676
-0.0435323
-0.0457695
-0.0479778
-0.0501559
-0.0523022
-0.0544155
-0.0564944
-0.0585377
-0.060544
-0.062512
-0.0644406
-0.0663285
-0.0681745
-0.0699774
-0.0717361
-0.0734496
-0.0751166
-0.0767362
-0.0783074
-0.079829
-0.0813003
-0.0827203
-0.084088
-0.0854025
-0.0866632
-0.0878691
-0.0890196
-0.0901138
-0.0911511
-0.0921308
-0.0930524
-0.0939152
-0.0947187
-0.0954624
-0.0961458
-0.0967685
-0.09733
-0.0978302
-0.0982685
-0.0986448
-0.0989588
-0.0992103
-0.0993991
-0.0995252
-0.0995884
-0.0995888
-0.0995263
-0.0994009
-0.0992128
-0.098962
-0.0986487
-0.0982732
-0.0978356
-0.0973362
-0.0967754
-0.0961534
-0.0954708
-0.0947279
-0.0939252
-0.0930632
-0.0921424
-0.0911635
-0.090127
-0.0890336
-0.087884
-0.086679
-0.0854192
-0.0841055
-0.0827387
-0.0813197
-0.0798494
-0.0783287
-0.0767585
-0.07514
-0.073474
-0.0717616
-0.0700039
-0.0682021
-0.0663573
-0.0644706
-0.0625432
-0.0605764
-0.0585714
-0.0565295
-0.0544519
-0.0523399
-0.050195
-0.0480184
-0.0458116
-0.0435759
-0.0413128
-0.0390236
-0.0367099
-0.0343731
-0.0320146
-0.029636
-0.0272387
-0.0248244
-0.0223944
-0.0199504
-0.0174939
-0.0150265
-0.0125497
-0.010065
-0.00757409
-0.00507851
-0.00257984
-7.96516e-05
0.00242046
0.00491892
0.00741415
0.00990456
0.0123886
0.0148646
0.0173311
0.0197866
0.0222293
0.0246579
0.0270708
0.0294663
0.0318431
0.0341996
0.0365344
0.0388458
0.0411326
0.0433931
0.0456261
0.04783
0.0500035
0.0521452
0.0542538
0.0563278
0.0583661
0.0603672
0.0623299
0.064253
0.0661353
0.0679755
0.0697725
0.0715252
0.0732324
0.074893
0.076506
0.0780703
0.0795851
0.0810492
0.0824618
0.0838219
0.0851287
0.0863814
0.0875792
0.0887212
0.0898068
0.0908352
0.0918059
0.0927181
0.0935713
0.0943649
0.0950985
0.0957715
0.0963835
0.0969341
0.0974229
0.0978497
0.0982141
0.0985159
0.0987549
0.0989309
0.0990439
0.0990936
0.09908
0.0990033
0.0988633
0.0986601
0.0983939
0.0980648
0.0976731
0.0972188
0.0967023
0.0961239
0.095484
0.0947829
0.094021
0.0931989
0.0923169
0.0913756
0.0903757
0.0893176
0.0882021
0.0870298
0.0858015
0.0845178
0.0831796
0.0817877
0.0803429
0.0788461
0.0772982
0.0757002
0.0740531
0.0723578
0.0706153
0.0688269
0.0669934
0.0651161
0.0631961
0.0612346
0.0592328
0.0571919
0.0551131
0.0529977
0.050847
0.0486623
0.046445
0.0441964
0.0419178
0.0396107
0.0372764
0.0349164
0.0325322
0.030125
0.0276965
0.0252481
0.0227813
0.0202975
0.0177984
0.0152853
0.0127598
0.0102234
0.00767774
0.00512424
0.00256449
0
0
-0.0031254
-0.00624884
-0.00936832
-0.0124819
-0.0155876
-0.0186834
-0.0217675
-0.0248377
-0.0278923
-0.0309293
-0.0339468
-0.0369428
-0.0399155
-0.042863
-0.0457834
-0.0486749
-0.0515356
-0.0543638
-0.0571577
-0.0599155
-0.0626354
-0.0653158
-0.0679549
-0.0705511
-0.0731028
-0.0756082
-0.078066
-0.0804744
-0.082832
-0.0851373
-0.0873888
-0.0895852
-0.0917249
-0.0938068
-0.0958294
-0.0977914
-0.0996917
-0.101529
-0.103302
-0.10501
-0.106652
-0.108226
-0.109732
-0.111169
-0.112535
-0.113831
-0.115054
-0.116205
-0.117283
-0.118286
-0.119215
-0.120068
-0.120846
-0.121547
-0.122172
-0.122719
-0.123189
-0.123581
-0.123895
-0.124131
-0.124289
-0.124368
-0.124368
-0.12429
-0.124133
-0.123898
-0.123585
-0.123194
-0.122725
-0.122179
-0.121555
-0.120855
-0.120078
-0.119225
-0.118298
-0.117295
-0.116219
-0.115069
-0.113846
-0.112552
-0.111187
-0.109751
-0.108246
-0.106673
-0.105032
-0.103325
-0.101553
-0.0997171
-0.0978181
-0.0958572
-0.0938359
-0.0917554
-0.089617
-0.087422
-0.0851719
-0.082868
-0.0805119
-0.078105
-0.0756488
-0.0731449
-0.0705949
-0.0680003
-0.0653629
-0.0626843
-0.0599662
-0.0572103
-0.0544183
-0.051592
-0.0487333
-0.0458439
-0.0429256
-0.0399803
-0.0370099
-0.0340162
-0.0310011
-0.0279665
-0.0249144
-0.0218467
-0.0187653
-0.0156722
-0.0125693
-0.00945864
-0.00634212
-0.00322174
-9.94703e-05
0.00302271
0.00614283
0.0092589
0.012369
0.015471
0.0185632
0.0216434
0.0247098
0.0277603
0.0307932
0.0338064
0.036798
0.0397662
0.042709
0.0456247
0.0485113
0.051367
0.05419
0.0569786
0.0597309
0.0624452
0.0651198
0.0677529
0.070343
0.0728884
0.0753874
0.0778385
0.0802402
0.0825908
0.0848889
0.087133
0.0893217
0.0914537
0.0935275
0.0955418
0.0974954
0.0993871
0.101215
0.10298
0.104678
0.10631
0.107874
0.10937
0.110796
0.112152
0.113436
0.114649
0.115788
0.116853
0.117844
0.11876
0.119601
0.120365
0.121053
0.121663
0.122196
0.122651
0.123028
0.123327
0.123546
0.123687
0.12375
0.123733
0.123637
0.123462
0.123208
0.122876
0.122465
0.121976
0.121408
0.120763
0.120041
0.119242
0.118366
0.117415
0.116388
0.115287
0.114111
0.112863
0.111541
0.110148
0.108684
0.10715
0.105547
0.103876
0.102138
0.100333
0.0984642
0.0965312
0.0945356
0.0924786
0.0903615
0.0881855
0.085952
0.0836624
0.081318
0.0789203
0.0764708
0.0739708
0.0714221
0.0688261
0.0661843
0.0634985
0.0607703
0.0580012
0.0551931
0.0523476
0.0494664
0.0465514
0.0436042
0.0406266
0.0376206
0.0345879
0.0315302
0.0284496
0.0253479
0.0222269
0.0190885
0.0159346
0.0127672
0.00958807
0.00639923
0.00320257
0
0
-0.00374614
-0.00748991
-0.011229
-0.0149609
-0.0186834
-0.0223941
-0.0260907
-0.0297708
-0.033432
-0.0370722
-0.040689
-0.04428
-0.0478431
-0.051376
-0.0548764
-0.0583422
-0.0617711
-0.065161
-0.0685098
-0.0718153
-0.0750754
-0.0782881
-0.0814514
-0.0845632
-0.0876217
-0.0906248
-0.0935706
-0.0964574
-0.0992832
-0.102046
-0.104745
-0.107378
-0.109942
-0.112438
-0.114862
-0.117214
-0.119491
-0.121694
-0.123819
-0.125866
-0.127834
-0.129721
-0.131526
-0.133248
-0.134886
-0.136439
-0.137905
-0.139285
-0.140576
-0.141779
-0.142892
-0.143915
-0.144847
-0.145688
-0.146436
-0.147092
-0.147656
-0.148126
-0.148502
-0.148785
-0.148974
-0.149068
-0.149069
-0.148975
-0.148787
-0.148506
-0.14813
-0.147662
-0.147099
-0.146444
-0.145697
-0.144857
-0.143927
-0.142905
-0.141793
-0.140591
-0.139301
-0.137923
-0.136457
-0.134906
-0.133269
-0.131548
-0.129745
-0.127859
-0.125893
-0.123847
-0.121723
-0.119522
-0.117246
-0.114895
-0.112473
-0.109979
-0.107416
-0.104785
-0.102088
-0.0993264
-0.0965023
-0.0936173
-0.0906733
-0.0876721
-0.0846157
-0.0815058
-0.0783446
-0.075134
-0.071876
-0.0685728
-0.0652263
-0.0618387
-0.0584122
-0.0549489
-0.051451
-0.0479208
-0.0443604
-0.0407721
-0.0371582
-0.0335209
-0.0298627
-0.0261857
-0.0224923
-0.0187849
-0.0150657
-0.0113372
-0.00760173
-0.00386161
-0.000119226
0.00362305
0.00736285
0.0110978
0.0148256
0.0185437
0.02225
0.025942
0.0296174
0.0332738
0.036909
0.0405207
0.0441065
0.0476641
0.0511915
0.0546862
0.0581461
0.061569
0.0649527
0.0682951
0.071594
0.0748474
0.0780532
0.0812093
0.0843138
0.0873648
0.0903601
0.093298
0.0961766
0.0989941
0.101749
0.104438
0.107062
0.109617
0.112103
0.114517
0.116859
0.119126
0.121318
0.123432
0.125468
0.127424
0.129299
0.131092
0.132802
0.134427
0.135966
0.137419
0.138784
0.140061
0.141249
0.142347
0.143355
0.144271
0.145095
0.145827
0.146466
0.147011
0.147463
0.147821
0.148084
0.148253
0.148327
0.148307
0.148192
0.147983
0.147679
0.14728
0.146788
0.146201
0.145521
0.144748
0.143882
0.142924
0.141875
0.140735
0.139504
0.138184
0.136775
0.135278
0.133694
0.132025
0.13027
0.128431
0.12651
0.124507
0.122423
0.120261
0.11802
0.115703
0.113311
0.110846
0.108308
0.1057
0.103023
0.100279
0.0974686
0.0945946
0.0916586
0.0886622
0.0856072
0.0824956
0.0793292
0.0761099
0.0728398
0.0695208
0.066155
0.0627443
0.0592909
0.0557969
0.0522644
0.0486955
0.0450924
0.0414573
0.0377924
0.0341
0.0303822
0.0266413
0.0228796
0.0190994
0.0153029
0.0114924
0.00767018
0.00383863
0
0
-0.00436451
-0.00872626
-0.0130825
-0.0174305
-0.0217675
-0.0260907
-0.0303974
-0.034685
-0.0389506
-0.0431916
-0.0474054
-0.0515892
-0.0557405
-0.0598565
-0.0639348
-0.0679726
-0.0719675
-0.075917
-0.0798186
-0.0836697
-0.087468
-0.091211
-0.0948964
-0.0985219
-0.102085
-0.105584
-0.109016
-0.112379
-0.115672
-0.118891
-0.122035
-0.125102
-0.12809
-0.130998
-0.133822
-0.136562
-0.139216
-0.141782
-0.144258
-0.146643
-0.148935
-0.151134
-0.153237
-0.155243
-0.157152
-0.158961
-0.160669
-0.162276
-0.163781
-0.165182
-0.166479
-0.167671
-0.168757
-0.169736
-0.170608
-0.171373
-0.172029
-0.172576
-0.173015
-0.173344
-0.173564
-0.173675
-0.173675
-0.173566
-0.173348
-0.173019
-0.172582
-0.172036
-0.171381
-0.170618
-0.169747
-0.168769
-0.167684
-0.166494
-0.165198
-0.163798
-0.162295
-0.160689
-0.158982
-0.157175
-0.155268
-0.153263
-0.151161
-0.148964
-0.146674
-0.14429
-0.141815
-0.139251
-0.136599
-0.133861
-0.131038
-0.128133
-0.125147
-0.122082
-0.118939
-0.115722
-0.112432
-0.109071
-0.105641
-0.102144
-0.098583
-0.0949599
-0.0912768
-0.0875362
-0.0837405
-0.079892
-0.0759931
-0.0720463
-0.0680542
-0.0640192
-0.059944
-0.055831
-0.0516829
-0.0475023
-0.0432918
-0.0390542
-0.0347921
-0.0305081
-0.0262051
-0.0218856
-0.0175526
-0.0132086
-0.00885653
-0.00449904
-0.000138907
0.0042211
0.00857822
0.0129297
0.0172728
0.0216047
0.0259228
0.0302242
0.0345063
0.0387663
0.0430015
0.0472093
0.051387
0.055532
0.0596416
0.0637131
0.0677442
0.0717321
0.0756743
0.0795684
0.0834119
0.0872023
0.0909373
0.0946144
0.0982314
0.101786
0.105276
0.108699
0.112052
0.115335
0.118544
0.121678
0.124734
0.127712
0.130608
0.133421
0.136149
0.13879
0.141344
0.143807
0.146179
0.148458
0.150643
0.152731
0.154723
0.156616
0.15841
0.160102
0.161693
0.163181
0.164565
0.165844
0.167018
0.168085
0.169046
0.169898
0.170642
0.171278
0.171804
0.172221
0.172528
0.172725
0.172812
0.172788
0.172654
0.17241
0.172056
0.171591
0.171018
0.170334
0.169542
0.168641
0.167633
0.166517
0.165294
0.163965
0.162532
0.160994
0.159352
0.157608
0.155763
0.153818
0.151773
0.149631
0.147393
0.145059
0.142631
0.140112
0.137502
0.134802
0.132015
0.129143
0.126186
0.123148
0.120029
0.116831
0.113558
0.110209
0.106789
0.103297
0.0997382
0.096113
0.0924239
0.0886733
0.0848634
0.0809965
0.0770751
0.0731014
0.069078
0.0650072
0.0608916
0.0567336
0.0525357
0.0483006
0.0440308
0.0397288
0.0353973
0.031039
0.0266563
0.0222521
0.0178289
0.0133894
0.00893629
0.00447226
0
0
-0.00498012
-0.0099571
-0.0149278
-0.019889
-0.0248377
-0.0297708
-0.034685
-0.0395773
-0.0444446
-0.0492838
-0.0540919
-0.0588659
-0.0636027
-0.0682993
-0.0729527
-0.0775601
-0.0821185
-0.0866251
-0.0910769
-0.0954713
-0.0998053
-0.104076
-0.108282
-0.112418
-0.116484
-0.120477
-0.124393
-0.128231
-0.131987
-0.135661
-0.139248
-0.142748
-0.146157
-0.149475
-0.152698
-0.155824
-0.158852
-0.16178
-0.164605
-0.167327
-0.169943
-0.172451
-0.174851
-0.17714
-0.179318
-0.181382
-0.183331
-0.185165
-0.186882
-0.188481
-0.189961
-0.191321
-0.19256
-0.193677
-0.194673
-0.195545
-0.196294
-0.196918
-0.197419
-0.197795
-0.198046
-0.198171
-0.198172
-0.198048
-0.197798
-0.197424
-0.196925
-0.196301
-0.195554
-0.194683
-0.19369
-0.192574
-0.191336
-0.189978
-0.188499
-0.186902
-0.185187
-0.183354
-0.181406
-0.179344
-0.177168
-0.174881
-0.172483
-0.169976
-0.167362
-0.164642
-0.161818
-0.158893
-0.155866
-0.152742
-0.149521
-0.146206
-0.142799
-0.139301
-0.135716
-0.132045
-0.12829
-0.124455
-0.120541
-0.116551
-0.112488
-0.108354
-0.104151
-0.0998832
-0.0955521
-0.0911607
-0.0867119
-0.0822085
-0.0776532
-0.0730491
-0.0683991
-0.0637059
-0.0589727
-0.0542025
-0.0493981
-0.0445628
-0.0396995
-0.0348113
-0.0299013
-0.0249726
-0.0200284
-0.0150717
-0.0101057
-0.00513363
-0.0001585
0.00481648
0.00978818
0.0147534
0.0197091
0.0246521
0.0295792
0.0344873
0.0393734
0.0442342
0.0490669
0.0538682
0.0586352
0.0633648
0.068054
0.0726999
0.0772995
0.0818498
0.0863481
0.0907915
0.0951771
0.0995022
0.103764
0.10796
0.112087
0.116143
0.120125
0.12403
0.127857
0.131603
0.135265
0.138841
0.142328
0.145725
0.14903
0.152239
0.155352
0.158367
0.16128
0.164091
0.166797
0.169398
0.171891
0.174274
0.176547
0.178707
0.180753
0.182685
0.1845
0.186198
0.187777
0.189237
0.190576
0.191794
0.192889
0.193862
0.194711
0.195437
0.196037
0.196513
0.196863
0.197088
0.197187
0.19716
0.197007
0.196728
0.196324
0.195794
0.19514
0.19436
0.193456
0.192428
0.191277
0.190004
0.188609
0.187093
0.185457
0.183702
0.181829
0.179839
0.177733
0.175514
0.173181
0.170737
0.168182
0.165519
0.16275
0.159875
0.156896
0.153816
0.150636
0.147358
0.143985
0.140518
0.136959
0.13331
0.129575
0.125754
0.121851
0.117868
0.113806
0.10967
0.10546
0.101181
0.0968333
0.0924211
0.0879465
0.0834124
0.0788214
0.0741765
0.0694803
0.0647358
0.0599459
0.0551134
0.0502413
0.0453326
0.0403901
0.035417
0.0304162
0.0253907
0.0203436
0.015278
0.0101967
0.00510308
0
0
-0.00559259
-0.0111816
-0.0167636
-0.022335
-0.0278923
-0.033432
-0.0389506
-0.0444446
-0.0499105
-0.0553449
-0.0607443
-0.0661054
-0.0714247
-0.0766989
-0.0819246
-0.0870987
-0.0922177
-0.0972785
-0.102278
-0.107213
-0.11208
-0.116876
-0.121598
-0.126244
-0.13081
-0.135293
-0.139691
-0.144001
-0.148219
-0.152344
-0.156373
-0.160303
-0.164132
-0.167858
-0.171477
-0.174988
-0.178388
-0.181676
-0.184849
-0.187905
-0.190843
-0.19366
-0.196355
-0.198925
-0.201371
-0.203689
-0.205878
-0.207937
-0.209865
-0.211661
-0.213323
-0.21485
-0.216241
-0.217496
-0.218614
-0.219593
-0.220434
-0.221136
-0.221698
-0.22212
-0.222402
-0.222543
-0.222544
-0.222404
-0.222124
-0.221703
-0.221143
-0.220443
-0.219604
-0.218626
-0.21751
-0.216257
-0.214867
-0.213342
-0.211681
-0.209888
-0.207961
-0.205904
-0.203716
-0.2014
-0.198957
-0.196388
-0.193695
-0.19088
-0.187944
-0.18489
-0.181719
-0.178434
-0.175035
-0.171527
-0.16791
-0.164187
-0.16036
-0.156433
-0.152406
-0.148284
-0.144068
-0.139761
-0.135366
-0.130885
-0.126322
-0.12168
-0.11696
-0.112167
-0.107303
-0.102372
-0.0973759
-0.0923186
-0.0872032
-0.0820329
-0.0768109
-0.0715406
-0.0662253
-0.0608684
-0.0554732
-0.0500432
-0.0445818
-0.0390924
-0.0335786
-0.0280438
-0.0224915
-0.0169253
-0.0113486
-0.00576497
-0.000177993
0.00540883
0.010992
0.0165678
0.022133
0.0276838
0.0332169
0.0387286
0.0442156
0.0496743
0.0551012
0.060493
0.0658463
0.0711575
0.0764234
0.0816407
0.0868059
0.0919159
0.0969674
0.101957
0.106882
0.111739
0.116525
0.121237
0.125872
0.130426
0.134898
0.139284
0.143581
0.147788
0.1519
0.155916
0.159832
0.163647
0.167358
0.170962
0.174458
0.177843
0.181115
0.184271
0.187311
0.190231
0.19303
0.195707
0.198259
0.200685
0.202983
0.205152
0.20719
0.209097
0.21087
0.21251
0.214013
0.215381
0.216611
0.217704
0.218658
0.219472
0.220146
0.22068
0.221074
0.221326
0.221437
0.221407
0.221235
0.220922
0.220468
0.219874
0.219138
0.218263
0.217248
0.216094
0.214801
0.213371
0.211804
0.210102
0.208265
0.206294
0.20419
0.201956
0.199591
0.197099
0.194479
0.191734
0.188866
0.185875
0.182765
0.179536
0.176192
0.172733
0.169162
0.165481
0.161693
0.157799
0.153802
0.149705
0.14551
0.14122
0.136837
0.132363
0.127802
0.123157
0.11843
0.113624
0.108742
0.103787
0.0987624
0.0936706
0.0885151
0.0832989
0.0780252
0.0726972
0.0673182
0.0618914
0.0564201
0.0509077
0.0453574
0.0397727
0.0341568
0.0285133
0.0228455
0.0171569
0.0114508
0.00573067
0
0
-0.00620152
-0.0123991
-0.0185889
-0.0247669
-0.0309293
-0.0370722
-0.0431916
-0.0492838
-0.0553449
-0.061371
-0.0673583
-0.0733031
-0.0792016
-0.08505
-0.0908448
-0.0965822
-0.102259
-0.10787
-0.113414
-0.118886
-0.124283
-0.129602
-0.134838
-0.13999
-0.145053
-0.150024
-0.154901
-0.15968
-0.164358
-0.168932
-0.1734
-0.177758
-0.182003
-0.186134
-0.190148
-0.194041
-0.197811
-0.201457
-0.204976
-0.208365
-0.211622
-0.214746
-0.217734
-0.220585
-0.223296
-0.225867
-0.228295
-0.230578
-0.232716
-0.234707
-0.23655
-0.238243
-0.239786
-0.241178
-0.242417
-0.243503
-0.244436
-0.245214
-0.245837
-0.246305
-0.246617
-0.246774
-0.246775
-0.24662
-0.246309
-0.245843
-0.245222
-0.244445
-0.243515
-0.24243
-0.241193
-0.239803
-0.238262
-0.236571
-0.23473
-0.232741
-0.230605
-0.228323
-0.225897
-0.223329
-0.22062
-0.217771
-0.214785
-0.211663
-0.208408
-0.205021
-0.201505
-0.197862
-0.194094
-0.190203
-0.186192
-0.182064
-0.177821
-0.173465
-0.169001
-0.164429
-0.159754
-0.154978
-0.150105
-0.145136
-0.140076
-0.134928
-0.129695
-0.12438
-0.118987
-0.113518
-0.107978
-0.102371
-0.0966981
-0.0909649
-0.0851743
-0.0793302
-0.0734361
-0.0674959
-0.0615133
-0.055492
-0.049436
-0.0433489
-0.0372347
-0.0310973
-0.0249404
-0.0187681
-0.0125842
-0.00639268
-0.000197374
0.00599775
0.0121888
0.0183718
0.0245429
0.0306981
0.0368336
0.0429455
0.0490299
0.0550829
0.0611008
0.0670797
0.0730158
0.0789053
0.0847446
0.0905299
0.0962576
0.101924
0.107526
0.113059
0.11852
0.123906
0.129213
0.134437
0.139577
0.144627
0.149586
0.15445
0.159215
0.163879
0.168439
0.172892
0.177235
0.181465
0.18558
0.189577
0.193453
0.197207
0.200835
0.204335
0.207705
0.210944
0.214048
0.217016
0.219846
0.222536
0.225084
0.227489
0.22975
0.231864
0.23383
0.235648
0.237316
0.238832
0.240197
0.241408
0.242466
0.243369
0.244116
0.244709
0.245145
0.245425
0.245548
0.245514
0.245324
0.244977
0.244474
0.243814
0.242999
0.242028
0.240902
0.239622
0.238189
0.236603
0.234866
0.232978
0.230941
0.228755
0.226423
0.223945
0.221324
0.218559
0.215655
0.212611
0.20943
0.206114
0.202665
0.199085
0.195376
0.19154
0.187581
0.183499
0.179298
0.17498
0.170549
0.166006
0.161354
0.156596
0.151736
0.146775
0.141718
0.136567
0.131325
0.125996
0.120582
0.115088
0.109516
0.10387
0.0981528
0.0923687
0.0865207
0.0806127
0.074648
0.0686303
0.0625633
0.0564506
0.050296
0.0441032
0.0378759
0.0316179
0.025333
0.019025
0.0126976
0.00635463
0
0
-0.00680654
-0.0136088
-0.0204024
-0.0271832
-0.0339468
-0.040689
-0.0474054
-0.0540919
-0.0607443
-0.0673583
-0.0739297
-0.0804545
-0.0869285
-0.0933475
-0.0997076
-0.106005
-0.112235
-0.118394
-0.124479
-0.130485
-0.136408
-0.142245
-0.147993
-0.153647
-0.159204
-0.164661
-0.170013
-0.175258
-0.180393
-0.185413
-0.190316
-0.1951
-0.19976
-0.204293
-0.208698
-0.212971
-0.21711
-0.221111
-0.224973
-0.228693
-0.232268
-0.235697
-0.238976
-0.242105
-0.245081
-0.247902
-0.250567
-0.253073
-0.25542
-0.257605
-0.259628
-0.261486
-0.26318
-0.264707
-0.266067
-0.267259
-0.268283
-0.269137
-0.269821
-0.270334
-0.270677
-0.270849
-0.27085
-0.27068
-0.270339
-0.269827
-0.269145
-0.268293
-0.267272
-0.266082
-0.264724
-0.263199
-0.261507
-0.259651
-0.25763
-0.255447
-0.253102
-0.250598
-0.247936
-0.245117
-0.242143
-0.239017
-0.235739
-0.232313
-0.22874
-0.225023
-0.221164
-0.217165
-0.213029
-0.208759
-0.204357
-0.199826
-0.195169
-0.190389
-0.185488
-0.180471
-0.17534
-0.170098
-0.164749
-0.159296
-0.153742
-0.148092
-0.142348
-0.136515
-0.130595
-0.124593
-0.118513
-0.112358
-0.106132
-0.0998394
-0.0934839
-0.0870696
-0.0806005
-0.0740808
-0.0675145
-0.0609058
-0.0542589
-0.047578
-0.0408673
-0.0341311
-0.0273736
-0.0205991
-0.013812
-0.00701635
-0.00021663
0.00658289
0.0133779
0.0201641
0.0269373
0.033693
0.0404271
0.0471353
0.0538132
0.0604568
0.0670618
0.0736239
0.0801392
0.0866033
0.0930123
0.099362
0.105648
0.111868
0.118016
0.124089
0.130083
0.135994
0.141819
0.147553
0.153194
0.158737
0.16418
0.169518
0.174748
0.179867
0.184872
0.189759
0.194526
0.199169
0.203685
0.208072
0.212327
0.216446
0.220428
0.22427
0.227969
0.231523
0.23493
0.238188
0.241294
0.244246
0.247043
0.249683
0.252164
0.254484
0.256643
0.258638
0.260468
0.262133
0.26363
0.26496
0.26612
0.267111
0.267932
0.268582
0.269061
0.269368
0.269503
0.269466
0.269258
0.268877
0.268324
0.2676
0.266705
0.26564
0.264404
0.263
0.261427
0.259686
0.25778
0.255708
0.253472
0.251073
0.248513
0.245793
0.242916
0.239882
0.236694
0.233353
0.229862
0.226222
0.222437
0.218507
0.214437
0.210227
0.205881
0.201401
0.19679
0.192051
0.187187
0.182201
0.177095
0.171874
0.166539
0.161095
0.155544
0.14989
0.144137
0.138288
0.132346
0.126316
0.1202
0.114003
0.107729
0.10138
0.0949617
0.0884772
0.0819306
0.0753258
0.0686669
0.0619579
0.0552029
0.0484059
0.0415711
0.0347026
0.0278045
0.020881
0.0139363
0.00697459
0
0
-0.00740726
-0.0148098
-0.0222031
-0.0295823
-0.0369428
-0.04428
-0.0515892
-0.0588659
-0.0661054
-0.0733031
-0.0804545
-0.0875551
-0.0946004
-0.101586
-0.108507
-0.11536
-0.12214
-0.128843
-0.135465
-0.142001
-0.148447
-0.1548
-0.161054
-0.167207
-0.173255
-0.179193
-0.185018
-0.190726
-0.196313
-0.201777
-0.207113
-0.212318
-0.21739
-0.222324
-0.227117
-0.231767
-0.236271
-0.240626
-0.244828
-0.248876
-0.252767
-0.256498
-0.260067
-0.263472
-0.266711
-0.269781
-0.272681
-0.275409
-0.277962
-0.28034
-0.282541
-0.284564
-0.286407
-0.288069
-0.289549
-0.290847
-0.29196
-0.29289
-0.293634
-0.294193
-0.294566
-0.294753
-0.294754
-0.294569
-0.294198
-0.293641
-0.292899
-0.291972
-0.290861
-0.289565
-0.288087
-0.286427
-0.284587
-0.282566
-0.280367
-0.277992
-0.27544
-0.272715
-0.269818
-0.26675
-0.263514
-0.260112
-0.256545
-0.252816
-0.248928
-0.244883
-0.240683
-0.236331
-0.231831
-0.227183
-0.222393
-0.217462
-0.212394
-0.207192
-0.201859
-0.196399
-0.190815
-0.18511
-0.179289
-0.173355
-0.167311
-0.161162
-0.154911
-0.148563
-0.142121
-0.135589
-0.128972
-0.122274
-0.115499
-0.108651
-0.101734
-0.094754
-0.087714
-0.0806189
-0.0734731
-0.0662812
-0.0590476
-0.0517771
-0.0444741
-0.0371434
-0.0297895
-0.0224172
-0.0150309
-0.00763558
-0.00023575
0.00716387
0.0145586
0.0219438
0.0293147
0.0366666
0.043995
0.0512952
0.0585626
0.0657925
0.0729804
0.0801217
0.0872119
0.0942466
0.101221
0.108131
0.114973
0.121741
0.128431
0.13504
0.141563
0.147996
0.154335
0.160576
0.166714
0.172747
0.17867
0.184479
0.190171
0.195742
0.201188
0.206507
0.211694
0.216747
0.221662
0.226436
0.231066
0.235549
0.239882
0.244063
0.248089
0.251957
0.255664
0.259209
0.262589
0.265802
0.268846
0.271719
0.274419
0.276944
0.279293
0.281464
0.283456
0.285267
0.286897
0.288344
0.289607
0.290686
0.291579
0.292286