# vtk DataFile Version 3.0
Scalar Field Data
ASCII
DATASET STRUCTURED_POINTS
DIMENSIONS 250 250 1
ORIGIN 0 0 0
SPACING 0.004 0.004 1
POINT_DATA 62500
SCALARS scalars double
LOOKUP_TABLE default
0
0
0
0
0
0
0
0
0
0
0
0
0
0
0
0
0
0
0
0
0
0
0
0
0
0
0
0
0
0
0
0
0
0
0
0
0
0
0
0
0
0
0
0
0
0
0
0
0
0
0
0
0
0
0
0
0
0
0
0
0
0
0
0
0
0
0
0
0
0
0
0
0
0
0
0
0
0
0
0
0
0
0
0
0
0
0
0
0
0
0
0
0
0
0
0
0
0
0
0
0
0
0
0
0
0
0
0
0
0
0
0
0
0
0
0
0
0
0
0
0
0
0
0
0
0
0
0
0
0
0
0
0
0
0
0
0
0
0
0
0
0
0
0
0
0
0
0
0
0
0
0
0
0
0
0
0
0
0
0
0
0
0
0
0
0
0
0
0
0
0
0
0
0
0
0
0
0
0
0
0
0
0
0
0
0
0
0
0
0
0
0
0
0
0
0
0
0
0
0
0
0
0
0
0
0
0
0
0
0
0
0
0
0
0
0
0
0
0
0
0
0
0
0
0
0
0
0
0
0
0
0
0
0
0
0
0
0
0
0
0
0
0
0
0
0
0
0
0
0
0
-0.000360124
-0.000719247
-0.00107717
-0.00143368
-0.00178858
-0.00214168
-0.00249276
-0.00284163
-0.00318809
-0.00353194
-0.00387299
-0.00421103
-0.00454588
-0.00487734
-0.00520521
-0.00552932
-0.00584947
-0.00616548
-0.00647717
-0.00678435
-0.00708685
-0.00738448
-0.00767709
-0.00796449
-0.00824652
-0.00852301
-0.00879381
-0.00905876
-0.00931769
-0.00957047
-0.00981694
-0.010057
-0.0102904
-0.0105171
-0.0107369
-0.0109497
-0.0111554
-0.0113539
-0.0115451
-0.0117287
-0.0119048
-0.0120732
-0.0122339
-0.0123866
-0.0125314
-0.0126682
-0.0127968
-0.0129173
-0.0130295
-0.0131333
-0.0132288
-0.0133158
-0.0133943
-0.0134642
-0.0135256
-0.0135784
-0.0136225
-0.0136579
-0.0136847
-0.0137027
-0.0137121
-0.0137127
-0.0137047
-0.0136879
-0.0136624
-0.0136283
-0.0135855
-0.0135341
-0.0134741
-0.0134056
-0.0133286
-0.0132432
-0.0131493
-0.0130471
-0.0129367
-0.0128181
-0.0126913
-0.0125566
-0.0124138
-0.0122633
-0.0121049
-0.0119389
-0.0117654
-0.0115844
-0.0113961
-0.0112005
-0.0109979
-0.0107884
-0.010572
-0.0103489
-0.0101193
-0.00988328
-0.00964102
-0.00939267
-0.00913838
-0.00887831
-0.00861263
-0.00834151
-0.00806512
-0.00778362
-0.00749722
-0.00720607
-0.00691037
-0.0066103
-0.00630605
-0.00599782
-0.0056858
-0.00537019
-0.00505119
-0.00472899
-0.0044038
-0.00407584
-0.00374529
-0.00341239
-0.00307732
-0.00274031
-0.00240157
-0.00206131
-0.00171975
-0.0013771
-0.00103358
-0.000689413
-0.000344807
1.81974e-08
0.000344843
0.000689451
0.00103362
0.00137714
0.00171979
0.00206136
0.00240162
0.00274036
0.00307738
0.00341245
0.00374536
0.00407591
0.00440389
0.00472908
0.00505129
0.00537031
0.00568593
0.00599796
0.00630621
0.00661047
0.00691056
0.00720628
0.00749745
0.00778388
0.0080654
0.00834183
0.00861298
0.00887869
0.0091388
0.00939314
0.00964154
0.00988385
0.0101199
0.0103496
0.0105727
0.0107892
0.0109988
0.0112015
0.0113972
0.0115856
0.0117667
0.0119404
0.0121065
0.012265
0.0124157
0.0125586
0.0126936
0.0128206
0.0129394
0.0130501
0.0131525
0.0132467
0.0133324
0.0134098
0.0134786
0.013539
0.0135908
0.013634
0.0136686
0.0136946
0.0137119
0.0137206
0.0137206
0.0137119
0.0136946
0.0136686
0.013634
0.0135908
0.013539
0.0134786
0.0134098
0.0133324
0.0132467
0.0131525
0.0130501
0.0129394
0.0128206
0.0126936
0.0125586
0.0124157
0.012265
0.0121065
0.0119404
0.0117667
0.0115856
0.0113972
0.0112015
0.0109988
0.0107892
0.0105727
0.0103496
0.0101199
0.00988385
0.00964154
0.00939314
0.0091388
0.00887869
0.00861298
0.00834182
0.0080654
0.00778388
0.00749745
0.00720628
0.00691056
0.00661047
0.00630621
0.00599796
0.00568593
0.0053703
0.00505129
0.00472908
0.00440389
0.00407591
0.00374536
0.00341244
0.00307737
0.00274036
0.00240161
0.00206135
0.00171978
0.00137713
0.00103361
0.000689436
0.000344827
0
0
-0.000720021
-0.00143804
-0.00215365
-0.00286645
-0.00357604
-0.004282
-0.00498395
-0.00568147
-0.00637417
-0.00706166
-0.00774353
-0.0084194
-0.00908889
-0.00975159
-0.0104071
-0.0110552
-0.0116953
-0.0123271
-0.0129502
-0.0135644
-0.0141692
-0.0147643
-0.0153493
-0.0159239
-0.0164878
-0.0170406
-0.0175821
-0.0181118
-0.0186295
-0.0191349
-0.0196277
-0.0201075
-0.0205742
-0.0210275
-0.021467
-0.0218925
-0.0223038
-0.0227007
-0.0230828
-0.02345
-0.0238021
-0.0241388
-0.02446
-0.0247654
-0.025055
-0.0253284
-0.0255856
-0.0258264
-0.0260507
-0.0262583
-0.0264492
-0.0266231
-0.0267801
-0.02692
-0.0270427
-0.0271482
-0.0272364
-0.0273072
-0.0273607
-0.0273968
-0.0274155
-0.0274168
-0.0274007
-0.0273671
-0.0273162
-0.027248
-0.0271624
-0.0270597
-0.0269398
-0.0268028
-0.0266488
-0.026478
-0.0262903
-0.026086
-0.0258652
-0.0256281
-0.0253747
-0.0251052
-0.0248198
-0.0245188
-0.0242022
-0.0238703
-0.0235233
-0.0231614
-0.0227849
-0.022394
-0.0219889
-0.0215699
-0.0211373
-0.0206913
-0.0202322
-0.0197603
-0.0192759
-0.0187794
-0.018271
-0.017751
-0.0172198
-0.0166777
-0.0161251
-0.0155623
-0.0149897
-0.0144076
-0.0138164
-0.0132164
-0.0126081
-0.0119919
-0.011368
-0.010737
-0.0100992
-0.00945499
-0.00880483
-0.0081491
-0.00748822
-0.00682262
-0.0061527
-0.00547889
-0.00480162
-0.00412132
-0.00343841
-0.00275333
-0.00206652
-0.00137839
-0.000689395
3.63833e-08
0.000689469
0.00137847
0.00206659
0.00275342
0.0034385
0.00412141
0.00480172
0.005479
0.00615281
0.00682274
0.00748836
0.00814925
0.008805
0.00945518
0.0100994
0.0107372
0.0113683
0.0119921
0.0126084
0.0132168
0.0138167
0.014408
0.0149902
0.0155629
0.0161257
0.0166784
0.0172205
0.0177518
0.0182718
0.0187803
0.019277
0.0197615
0.0202334
0.0206927
0.0211388
0.0215716
0.0219907
0.022396
0.0227871
0.0231639
0.023526
0.0238732
0.0242054
0.0245223
0.0248237
0.0251094
0.0253792
0.025633
0.0258707
0.0260919
0.0262967
0.0264849
0.0266564
0.026811
0.0269487
0.0270694
0.027173
0.0272594
0.0273286
0.0273806
0.0274152
0.0274325
0.0274325
0.0274152
0.0273806
0.0273286
0.0272594
0.027173
0.0270694
0.0269487
0.026811
0.0266564
0.0264849
0.0262967
0.0260919
0.0258707
0.025633
0.0253792
0.0251094
0.0248237
0.0245223
0.0242054
0.0238732
0.023526
0.0231639
0.0227871
0.022396
0.0219907
0.0215716
0.0211388
0.0206927
0.0202334
0.0197615
0.019277
0.0187803
0.0182718
0.0177518
0.0172205
0.0166784
0.0161257
0.0155628
0.0149902
0.014408
0.0138167
0.0132168
0.0126084
0.0119921
0.0113683
0.0107372
0.0100994
0.00945517
0.00880499
0.00814924
0.00748835
0.00682273
0.0061528
0.00547898
0.0048017
0.00412139
0.00343848
0.00275339
0.00206657
0.00137844
0.000689436
0
0
-0.00107946
-0.00215593
-0.00322878
-0.00429742
-0.00536124
-0.00641963
-0.00747199
-0.00851772
-0.00955623
-0.0105869
-0.0116092
-0.0126225
-0.0136262
-0.0146197
-0.0156025
-0.016574
-0.0175336
-0.0184809
-0.0194151
-0.0203359
-0.0212426
-0.0221348
-0.0230119
-0.0238733
-0.0247187
-0.0255475
-0.0263592
-0.0271534
-0.0279295
-0.0286872
-0.029426
-0.0301454
-0.0308451
-0.0315246
-0.0321835
-0.0328215
-0.0334382
-0.0340331
-0.034606
-0.0351565
-0.0356844
-0.0361892
-0.0366707
-0.0371286
-0.0375627
-0.0379726
-0.0383582
-0.0387192
-0.0390555
-0.0393668
-0.0396529
-0.0399137
-0.040149
-0.0403587
-0.0405427
-0.0407008
-0.040833
-0.0409393
-0.0410195
-0.0410736
-0.0411017
-0.0411036
-0.0410794
-0.0410291
-0.0409528
-0.0408504
-0.0407222
-0.0405682
-0.0403884
-0.040183
-0.0399522
-0.039696
-0.0394147
-0.0391085
-0.0387774
-0.0384219
-0.038042
-0.037638
-0.0372102
-0.0367588
-0.0362842
-0.0357866
-0.0352664
-0.0347239
-0.0341594
-0.0335733
-0.032966
-0.0323378
-0.0316892
-0.0310206
-0.0303323
-0.0296249
-0.0288987
-0.0281543
-0.027392
-0.0266125
-0.0258161
-0.0250035
-0.024175
-0.0233312
-0.0224727
-0.0216
-0.0207136
-0.0198142
-0.0189022
-0.0179783
-0.0170431
-0.016097
-0.0151408
-0.014175
-0.0132003
-0.0122172
-0.0112264
-0.0102285
-0.00922419
-0.00821401
-0.00719864
-0.00617873
-0.00515491
-0.00412783
-0.00309814
-0.0020665
-0.00103355
5.45463e-08
0.00103366
0.00206661
0.00309826
0.00412795
0.00515503
0.00617886
0.00719879
0.00821417
0.00922436
0.0102287
0.0112266
0.0122174
0.0132005
0.0141753
0.0151411
0.0160974
0.0170434
0.0179787
0.0189027
0.0198147
0.0207142
0.0216006
0.0224734
0.023332
0.0241758
0.0250044
0.0258172
0.0266137
0.0273933
0.0281557
0.0289003
0.0296266
0.0303342
0.0310226
0.0316915
0.0323403
0.0329688
0.0335763
0.0341627
0.0347275
0.0352704
0.035791
0.036289
0.036764
0.0372159
0.0376442
0.0380488
0.0384293
0.0387856
0.0391173
0.0394244
0.0397065
0.0399636
0.0401954
0.0404018
0.0405828
0.0407381
0.0408676
0.0409713
0.0410492
0.0411012
0.0411271
0.0411271
0.0411012
0.0410492
0.0409713
0.0408676
0.0407381
0.0405828
0.0404018
0.0401954
0.0399636
0.0397065
0.0394244
0.0391173
0.0387856
0.0384293
0.0380488
0.0376442
0.0372159
0.036764
0.036289
0.035791
0.0352704
0.0347275
0.0341627
0.0335763
0.0329688
0.0323403
0.0316915
0.0310226
0.0303342
0.0296266
0.0289003
0.0281557
0.0273933
0.0266137
0.0258172
0.0250044
0.0241758
0.023332
0.0224734
0.0216006
0.0207142
0.0198147
0.0189027
0.0179787
0.0170434
0.0160973
0.0151411
0.0141753
0.0132005
0.0122174
0.0112266
0.0102287
0.00922434
0.00821415
0.00719876
0.00617883
0.005155
0.00412792
0.00309822
0.00206657
0.00103361
0
0
-0.00143822
-0.00287245
-0.00430187
-0.00572567
-0.00714305
-0.00855319
-0.00995531
-0.0113486
-0.0127322
-0.0141055
-0.0154675
-0.0168175
-0.0181548
-0.0194786
-0.020788
-0.0220824
-0.023361
-0.024623
-0.0258678
-0.0270946
-0.0283026
-0.0294913
-0.0306599
-0.0318077
-0.032934
-0.0340382
-0.0351197
-0.0361778
-0.0372119
-0.0382215
-0.0392058
-0.0401643
-0.0410965
-0.0420018
-0.0428798
-0.0437298
-0.0445513
-0.045344
-0.0461073
-0.0468408
-0.0475441
-0.0482167
-0.0488582
-0.0494683
-0.0500466
-0.0505928
-0.0511066
-0.0515876
-0.0520356
-0.0524503
-0.0528315
-0.053179
-0.0534925
-0.0537719
-0.054017
-0.0542277
-0.0544039
-0.0545455
-0.0546524
-0.0547245
-0.0547618
-0.0547644
-0.0547321
-0.0546651
-0.0545634
-0.0544271
-0.0542563
-0.054051
-0.0538115
-0.0535379
-0.0532303
-0.052889
-0.0525142
-0.0521062
-0.0516651
-0.0511914
-0.0506852
-0.050147
-0.049577
-0.0489756
-0.0483433
-0.0476803
-0.0469872
-0.0462644
-0.0455123
-0.0447314
-0.0439223
-0.0430853
-0.0422211
-0.0413303
-0.0404133
-0.0394707
-0.0385032
-0.0375114
-0.0364958
-0.0354572
-0.0343961
-0.0333134
-0.0322095
-0.0310854
-0.0299415
-0.0287788
-0.0275978
-0.0263995
-0.0251844
-0.0239534
-0.0227073
-0.0214469
-0.0201729
-0.0188861
-0.0175874
-0.0162776
-0.0149575
-0.013628
-0.0122899
-0.0109439
-0.00959111
-0.00823223
-0.00686814
-0.00549971
-0.00412781
-0.0027533
-0.00137705
7.26747e-08
0.0013772
0.00275345
0.00412797
0.00549988
0.00686831
0.00823241
0.00959131
0.0109442
0.0122901
0.0136282
0.0149578
0.0162779
0.0175878
0.0188865
0.0201733
0.0214473
0.0227078
0.023954
0.025185
0.0264001
0.0275986
0.0287796
0.0299425
0.0310864
0.0322107
0.0333146
0.0343975
0.0354587
0.0364975
0.0375132
0.0385053
0.039473
0.0404158
0.041333
0.0422242
0.0430887
0.0439259
0.0447355
0.0455167
0.0462692
0.0469925
0.0476861
0.0483496
0.0489826
0.0495846
0.0501553
0.0506943
0.0512013
0.051676
0.052118
0.0525271
0.052903
0.0532455
0.0535544
0.0538294
0.0540705
0.0542774
0.05445
0.0545882
0.0546919
0.0547611
0.0547958
0.0547958
0.0547611
0.0546919
0.0545882
0.05445
0.0542774
0.0540705
0.0538294
0.0535544
0.0532455
0.052903
0.0525271
0.052118
0.051676
0.0512013
0.0506943
0.0501553
0.0495846
0.0489826
0.0483496
0.0476861
0.0469925
0.0462692
0.0455167
0.0447355
0.0439259
0.0430887
0.0422242
0.041333
0.0404158
0.039473
0.0385053
0.0375132
0.0364975
0.0354587
0.0343975
0.0333146
0.0322107
0.0310864
0.0299425
0.0287796
0.0275986
0.0264001
0.025185
0.023954
0.0227078
0.0214473
0.0201733
0.0188865
0.0175877
0.0162779
0.0149578
0.0136282
0.0122901
0.0109441
0.00959128
0.00823237
0.00686827
0.00549983
0.00412792
0.00275339
0.00137713
0
0
-0.00179607
-0.00358716
-0.00537224
-0.0071503
-0.00892034
-0.0106814
-0.0124323
-0.0141723
-0.0159002
-0.0176151
-0.0193161
-0.021002
-0.022672
-0.0243251
-0.0259604
-0.0275768
-0.0291735
-0.0307496
-0.0323041
-0.0338361
-0.0353448
-0.0368292
-0.0382885
-0.0397219
-0.0411285
-0.0425075
-0.0438581
-0.0451794
-0.0464708
-0.0477315
-0.0489608
-0.0501578
-0.051322
-0.0524525
-0.0535489
-0.0546104
-0.0556364
-0.0566263
-0.0575795
-0.0584955
-0.0593738
-0.0602137
-0.0610148
-0.0617768
-0.062499
-0.0631811
-0.0638227
-0.0644234
-0.0649828
-0.0655008
-0.0659768
-0.0664107
-0.0668022
-0.0671512
-0.0674573
-0.0677204
-0.0679405
-0.0681173
-0.0682507
-0.0683408
-0.0683874
-0.0683906
-0.0683503
-0.0682666
-0.0681396
-0.0679694
-0.0677561
-0.0674997
-0.0672006
-0.0668589
-0.0664748
-0.0660486
-0.0655806
-0.065071
-0.0645202
-0.0639286
-0.0632965
-0.0626243
-0.0619125
-0.0611615
-0.0603718
-0.0595439
-0.0586783
-0.0577757
-0.0568364
-0.0558613
-0.0548508
-0.0538056
-0.0527264
-0.0516139
-0.0504687
-0.0492916
-0.0480834
-0.0468448
-0.0455765
-0.0442795
-0.0429544
-0.0416022
-0.0402238
-0.0388199
-0.0373914
-0.0359394
-0.0344646
-0.032968
-0.0314507
-0.0299134
-0.0283572
-0.0267832
-0.0251922
-0.0235853
-0.0219634
-0.0203277
-0.0186792
-0.0170188
-0.0153478
-0.013667
-0.0119775
-0.0102805
-0.00857704
-0.00686813
-0.00515487
-0.00343836
-0.00171968
9.07573e-08
0.00171986
0.00343855
0.00515507
0.00686833
0.00857725
0.0102808
0.0119778
0.0136672
0.015348
0.0170192
0.0186795
0.0203281
0.0219638
0.0235857
0.0251927
0.0267837
0.0283579
0.0299141
0.0314514
0.0329689
0.0344655
0.0359404
0.0373926
0.0388212
0.0402252
0.0416038
0.0429562
0.0442814
0.0455786
0.0468471
0.048086
0.0492945
0.0504718
0.0516173
0.0527302
0.0538098
0.0548554
0.0558663
0.056842
0.0577817
0.058685
0.0595512
0.0603798
0.0611702
0.061922
0.0626347
0.0633078
0.063941
0.0645337
0.0650857
0.0655966
0.0660661
0.0664938
0.0668795
0.067223
0.067524
0.0677824
0.067998
0.0681706
0.0683001
0.0683865
0.0684298
0.0684298
0.0683865
0.0683001
0.0681706
0.067998
0.0677824
0.067524
0.067223
0.0668795
0.0664938
0.0660661
0.0655966
0.0650857
0.0645337
0.063941
0.0633078
0.0626347
0.061922
0.0611702
0.0603798
0.0595512
0.058685
0.0577817
0.056842
0.0558663
0.0548554
0.0538098
0.0527302
0.0516173
0.0504718
0.0492945
0.048086
0.0468471
0.0455786
0.0442814
0.0429562
0.0416038
0.0402252
0.0388211
0.0373926
0.0359404
0.0344655
0.0329689
0.0314514
0.0299141
0.0283579
0.0267837
0.0251927
0.0235857
0.0219638
0.0203281
0.0186795
0.0170191
0.015348
0.0136672
0.0119777
0.0102807
0.0085772
0.00686827
0.005155
0.00343848
0.00171978
0
0
-0.00215279
-0.0042996
-0.00643921
-0.00857042
-0.010692
-0.0128028
-0.0149015
-0.016987
-0.0190582
-0.0211137
-0.0231524
-0.0251732
-0.0271749
-0.0291563
-0.0311163
-0.0330538
-0.0349677
-0.0368567
-0.03872
-0.0405563
-0.0423646
-0.0441438
-0.045893
-0.047611
-0.049297
-0.0509499
-0.0525687
-0.0541525
-0.0557004
-0.0572115
-0.0586848
-0.0601196
-0.061515
-0.0628701
-0.0641842
-0.0654565
-0.0666863
-0.0678728
-0.0690154
-0.0701133
-0.0711659
-0.0721727
-0.073133
-0.0740462
-0.0749119
-0.0757294
-0.0764985
-0.0772185
-0.077889
-0.0785098
-0.0790804
-0.0796005
-0.0800698
-0.080488
-0.0808549
-0.0811704
-0.0814341
-0.081646
-0.0818059
-0.0819139
-0.0819698
-0.0819736
-0.0819253
-0.081825
-0.0816728
-0.0814688
-0.081213
-0.0809058
-0.0805473
-0.0801377
-0.0796774
-0.0791665
-0.0786055
-0.0779947
-0.0773345
-0.0766254
-0.0758677
-0.0750621
-0.0742089
-0.0733087
-0.0723622
-0.0713699
-0.0703324
-0.0692505
-0.0681247
-0.0669558
-0.0657447
-0.0644919
-0.0631984
-0.0618649
-0.0604923
-0.0590814
-0.0576332
-0.0561486
-0.0546284
-0.0530738
-0.0514856
-0.0498648
-0.0482126
-0.0465299
-0.0448177
-0.0430773
-0.0413096
-0.0395158
-0.0376971
-0.0358545
-0.0339893
-0.0321026
-0.0301956
-0.0282695
-0.0263256
-0.024365
-0.0223891
-0.020399
-0.018396
-0.0163813
-0.0143564
-0.0123223
-0.0102805
-0.0082322
-0.00617868
-0.00412125
-0.00206122
1.08783e-07
0.00206144
0.00412148
0.00617891
0.00823244
0.0102808
0.0123226
0.0143567
0.0163817
0.0183963
0.0203993
0.0223895
0.0243655
0.0263261
0.0282701
0.0301962
0.0321032
0.03399
0.0358553
0.037698
0.0395168
0.0413107
0.0430785
0.0448191
0.0465314
0.0482143
0.0498667
0.0514877
0.0530761
0.054631
0.0561514
0.0576363
0.0590848
0.060496
0.061869
0.0632029
0.0644969
0.0657502
0.0669619
0.0681313
0.0692577
0.0703404
0.0713786
0.0723717
0.0733192
0.0742203
0.0750745
0.0758813
0.0766402
0.0773507
0.0780124
0.0786247
0.0791874
0.0797001
0.0801624
0.0805741
0.0809349
0.0812446
0.081503
0.0817099
0.0818652
0.0819688
0.0820206
0.0820206
0.0819688
0.0818652
0.0817099
0.081503
0.0812446
0.0809349
0.0805741
0.0801624
0.0797001
0.0791874
0.0786247
0.0780124
0.0773507
0.0766402
0.0758813
0.0750745
0.0742203
0.0733192
0.0723717
0.0713786
0.0703404
0.0692577
0.0681313
0.0669619
0.0657502
0.0644969
0.0632029
0.061869
0.060496
0.0590848
0.0576363
0.0561514
0.054631
0.0530761
0.0514877
0.0498667
0.0482143
0.0465314
0.0448191
0.0430785
0.0413107
0.0395168
0.037698
0.0358553
0.03399
0.0321032
0.0301962
0.02827
0.0263261
0.0243654
0.0223894
0.0203993
0.0183963
0.0163816
0.0143566
0.0123226
0.0102807
0.00823237
0.00617883
0.00412139
0.00206135
0
0
-0.00250815
-0.00500933
-0.00750212
-0.00998512
-0.0124569
-0.0149161
-0.0173613
-0.0197911
-0.022204
-0.0245989
-0.0269741
-0.0293285
-0.0316606
-0.0339691
-0.0362526
-0.03851
-0.0407397
-0.0429406
-0.0451114
-0.0472508
-0.0493576
-0.0514306
-0.0534684
-0.0554701
-0.0574344
-0.0593601
-0.0612461
-0.0630913
-0.0648948
-0.0666553
-0.0683718
-0.0700434
-0.0716691
-0.073248
-0.074779
-0.0762613
-0.0776941
-0.0790765
-0.0804076
-0.0816868
-0.0829132
-0.0840861
-0.0852049
-0.0862689
-0.0872774
-0.08823
-0.0891259
-0.0899648
-0.0907461
-0.0914693
-0.0921341
-0.09274
-0.0932868
-0.093774
-0.0942015
-0.094569
-0.0948763
-0.0951231
-0.0953095
-0.0954353
-0.0955004
-0.0955048
-0.0954486
-0.0953317
-0.0951544
-0.0949167
-0.0946187
-0.0942608
-0.0938431
-0.0933659
-0.0928296
-0.0922344
-0.0915808
-0.0908692
-0.0901
-0.0892738
-0.0883911
-0.0874524
-0.0864584
-0.0854097
-0.0843069
-0.0831508
-0.0819421
-0.0806815
-0.0793699
-0.0780081
-0.076597
-0.0751375
-0.0736304
-0.0720768
-0.0704776
-0.0688339
-0.0671466
-0.0654169
-0.0636459
-0.0618346
-0.0599842
-0.0580959
-0.0561709
-0.0542105
-0.0522157
-0.050188
-0.0481285
-0.0460386
-0.0439196
-0.0417729
-0.0395998
-0.0374017
-0.0351799
-0.0329359
-0.0306711
-0.0283869
-0.0260848
-0.0237662
-0.0214325
-0.0190854
-0.0167262
-0.0143564
-0.0119775
-0.00959108
-0.00719858
-0.00480154
-0.00240147
1.26739e-07
0.00240172
0.0048018
0.00719885
0.00959136
0.0119778
0.0143567
0.0167265
0.0190858
0.0214329
0.0237666
0.0260853
0.0283874
0.0306717
0.0329365
0.0351806
0.0374025
0.0396007
0.0417739
0.0439207
0.0460398
0.0481298
0.0501894
0.0522173
0.0542123
0.0561729
0.0580981
0.0599866
0.0618373
0.0636488
0.0654202
0.0671502
0.0688378
0.070482
0.0720816
0.0736357
0.0751433
0.0766034
0.0780152
0.0793776
0.08069
0.0819513
0.0831609
0.084318
0.0854218
0.0864717
0.0874669
0.0884069
0.0892911
0.0901189
0.0908897
0.0916031
0.0922587
0.092856
0.0933947
0.0938743
0.0942947
0.0946555
0.0949565
0.0951976
0.0953785
0.0954992
0.0955596
0.0955596
0.0954992
0.0953785
0.0951976
0.0949565
0.0946555
0.0942947
0.0938743
0.0933947
0.092856
0.0922587
0.0916031
0.0908897
0.0901189
0.0892911
0.0884069
0.0874669
0.0864717
0.0854218
0.084318
0.0831609
0.0819513
0.08069
0.0793776
0.0780152
0.0766034
0.0751433
0.0736357
0.0720816
0.070482
0.0688378
0.0671502
0.0654202
0.0636488
0.0618373
0.0599866
0.0580981
0.0561729
0.0542122
0.0522173
0.0501894
0.0481298
0.0460398
0.0439207
0.0417739
0.0396007
0.0374024
0.0351806
0.0329365
0.0306716
0.0283874
0.0260852
0.0237666
0.0214329
0.0190857
0.0167264
0.0143566
0.0119777
0.00959128
0.00719876
0.0048017
0.00240161
0
0
-0.00286192
-0.00571589
-0.00856029
-0.0113935
-0.014214
-0.01702
-0.0198101
-0.0225826
-0.0253359
-0.0280685
-0.0307788
-0.0334653
-0.0361263
-0.0387604
-0.0413661
-0.0439418
-0.046486
-0.0489974
-0.0514744
-0.0539155
-0.0563195
-0.0586848
-0.0610101
-0.0632941
-0.0655354
-0.0677328
-0.0698848
-0.0719904
-0.0740481
-0.0760569
-0.0780156
-0.079923
-0.081778
-0.0835796
-0.0853265
-0.087018
-0.0886528
-0.0902302
-0.0917491
-0.0932086
-0.094608
-0.0959464
-0.097223
-0.0984371
-0.0995879
-0.100675
-0.101697
-0.102654
-0.103546
-0.104371
-0.10513
-0.105821
-0.106445
-0.107001
-0.107489
-0.107908
-0.108259
-0.10854
-0.108753
-0.108896
-0.108971
-0.108976
-0.108912
-0.108778
-0.108576
-0.108305
-0.107965
-0.107556
-0.10708
-0.106535
-0.105923
-0.105244
-0.104498
-0.103686
-0.102809
-0.101866
-0.100859
-0.0997875
-0.0986533
-0.0974567
-0.0961983
-0.0948791
-0.0934999
-0.0920616
-0.090565
-0.0890111
-0.087401
-0.0857356
-0.0840159
-0.0822432
-0.0804184
-0.0785428
-0.0766176
-0.0746439
-0.0726231
-0.0705563
-0.068445
-0.0662903
-0.0640938
-0.0618568
-0.0595807
-0.0572669
-0.054917
-0.0525323
-0.0501145
-0.047665
-0.0451853
-0.0426772
-0.040142
-0.0375815
-0.0349972
-0.0323909
-0.029764
-0.0271184
-0.0244556
-0.0217774
-0.0190854
-0.0163813
-0.0136669
-0.0109439
-0.00821394
-0.0054788
-0.00274019
1.44616e-07
0.00274048
0.0054791
0.00821425
0.0109442
0.0136673
0.0163817
0.0190858
0.0217778
0.0244561
0.0271189
0.0297646
0.0323915
0.0349979
0.0375822
0.0401428
0.0426781
0.0451863
0.0476661
0.0501157
0.0525337
0.0549185
0.0572686
0.0595826
0.0618589
0.0640961
0.0662929
0.0684477
0.0705594
0.0726265
0.0746477
0.0766217
0.0785474
0.0804234
0.0822487
0.084022
0.0857422
0.0874083
0.0890192
0.0905738
0.0920713
0.0935105
0.0948907
0.096211
0.0974705
0.0986685
0.0998041
0.100877
0.101886
0.10283
0.10371
0.104524
0.105272
0.105953
0.106568
0.107115
0.107595
0.108007
0.10835
0.108625
0.108832
0.108969
0.109038
0.109038
0.108969
0.108832
0.108625
0.10835
0.108007
0.107595
0.107115
0.106568
0.105953
0.105272
0.104524
0.10371
0.10283
0.101886
0.100877
0.0998041
0.0986685
0.0974705
0.096211
0.0948907
0.0935105
0.0920713
0.0905738
0.0890192
0.0874083
0.0857422
0.084022
0.0822487
0.0804234
0.0785474
0.0766217
0.0746477
0.0726265
0.0705594
0.0684477
0.0662928
0.0640961
0.0618589
0.0595826
0.0572686
0.0549185
0.0525337
0.0501157
0.0476661
0.0451863
0.042678
0.0401428
0.0375822
0.0349979
0.0323914
0.0297645
0.0271188
0.024456
0.0217777
0.0190857
0.0163816
0.0136672
0.0109441
0.00821415
0.00547898
0.00274036
0
0
-0.00321389
-0.00641884
-0.00961306
-0.0127947
-0.015962
-0.0191132
-0.0222464
-0.0253598
-0.0284518
-0.0315204
-0.0345641
-0.0375809
-0.0405692
-0.0435273
-0.0464534
-0.0493458
-0.052203
-0.0550232
-0.0578048
-0.0605462
-0.0632458
-0.065902
-0.0685133
-0.0710782
-0.0735951
-0.0760627
-0.0784794
-0.0808439
-0.0831547
-0.0854106
-0.0876102
-0.0897521
-0.0918353
-0.0938584
-0.0958202
-0.0977196
-0.0995555
-0.101327
-0.103033
-0.104672
-0.106243
-0.107746
-0.10918
-0.110543
-0.111835
-0.113056
-0.114204
-0.115279
-0.11628
-0.117207
-0.118059
-0.118835
-0.119536
-0.12016
-0.120708
-0.121179
-0.121572
-0.121889
-0.122128
-0.122289
-0.122372
-0.122378
-0.122306
-0.122156
-0.121929
-0.121624
-0.121242
-0.120784
-0.120249
-0.119637
-0.11895
-0.118187
-0.11735
-0.116438
-0.115452
-0.114394
-0.113262
-0.11206
-0.110786
-0.109442
-0.108029
-0.106548
-0.104999
-0.103384
-0.101703
-0.0999579
-0.0981498
-0.0962795
-0.0943484
-0.0923576
-0.0903085
-0.0882022
-0.0860402
-0.0838238
-0.0815544
-0.0792335
-0.0768625
-0.0744429
-0.0719762
-0.0694641
-0.0669081
-0.0643098
-0.0616708
-0.0589929
-0.0562777
-0.0535269
-0.0507423
-0.0479257
-0.0450788
-0.0422033
-0.0393013
-0.0363744
-0.0334245
-0.0304535
-0.0274632
-0.0244556
-0.0214325
-0.0183959
-0.0153477
-0.0122898
-0.00922411
-0.00615259
-0.00307719
1.62401e-07
0.00307752
0.00615293
0.00922445
0.0122902
0.0153481
0.0183963
0.021433
0.0244561
0.0274637
0.030454
0.0334251
0.036375
0.039302
0.0422042
0.0450797
0.0479267
0.0507435
0.0535282
0.0562791
0.0589944
0.0616725
0.0643116
0.0669102
0.0694664
0.0719788
0.0744457
0.0768656
0.0792369
0.0815582
0.083828
0.0860448
0.0882073
0.0903141
0.0923638
0.0943552
0.096287
0.098158
0.099967
0.101713
0.103394
0.105011
0.106561
0.108043
0.109458
0.110803
0.112078
0.113283
0.114416
0.115476
0.116464
0.117378
0.118218
0.118984
0.119674
0.120289
0.120827
0.12129
0.121675
0.121984
0.122216
0.122371
0.122448
0.122448
0.122371
0.122216
0.121984
0.121675
0.12129
0.120827
0.120289
0.119674
0.118984
0.118218
0.117378
0.116464
0.115476
0.114416
0.113283
0.112078
0.110803
0.109458
0.108043
0.106561
0.105011
0.103394
0.101713
0.099967
0.098158
0.096287
0.0943552
0.0923638
0.0903141
0.0882073
0.0860448
0.083828
0.0815582
0.0792369
0.0768656
0.0744457
0.0719788
0.0694664
0.0669101
0.0643116
0.0616725
0.0589944
0.0562791
0.0535282
0.0507434
0.0479267
0.0450797
0.0422041
0.039302
0.036375
0.033425
0.030454
0.0274637
0.024456
0.0214329
0.0183963
0.015348
0.0122901
0.00922434
0.0061528
0.00307737
0
0
-0.00356382
-0.00711774
-0.0106597
-0.0141878
-0.0177
-0.0211943
-0.0246686
-0.0281211
-0.0315497
-0.0349525
-0.0383275
-0.0416728
-0.0449865
-0.0482666
-0.0515113
-0.0547187
-0.057887
-0.0610142
-0.0640987
-0.0671386
-0.0701321
-0.0730776
-0.0759732
-0.0788173
-0.0816083
-0.0843446
-0.0870244
-0.0896464
-0.0922088
-0.0947103
-0.0971494
-0.0995246
-0.101835
-0.104078
-0.106253
-0.10836
-0.110395
-0.11236
-0.114251
-0.116069
-0.117811
-0.119478
-0.121067
-0.122579
-0.124012
-0.125366
-0.126639
-0.127831
-0.128941
-0.129969
-0.130913
-0.131774
-0.132551
-0.133243
-0.133851
-0.134373
-0.134809
-0.13516
-0.135425
-0.135604
-0.135696
-0.135703
-0.135623
-0.135457
-0.135205
-0.134867
-0.134444
-0.133935
-0.133341
-0.132663
-0.131901
-0.131056
-0.130127
-0.129116
-0.128023
-0.126849
-0.125595
-0.124261
-0.122849
-0.121358
-0.119791
-0.118149
-0.116431
-0.11464
-0.112777
-0.110842
-0.108837
-0.106763
-0.104621
-0.102414
-0.100141
-0.0978059
-0.0954085
-0.0929507
-0.0904343
-0.0878606
-0.0852314
-0.0825484
-0.0798132
-0.0770275
-0.0741932
-0.071312
-0.0683857
-0.0654162
-0.0624053
-0.0593551
-0.0562673
-0.053144
-0.049987
-0.0467985
-0.0435805
-0.0403349
-0.0370638
-0.0337693
-0.0304535
-0.0271184
-0.0237662
-0.0203989
-0.0170188
-0.0136279
-0.0102285
-0.0068225
-0.00341224
1.80083e-07
0.0034126
0.00682287
0.0102288
0.0136283
0.0170192
0.0203994
0.0237666
0.0271189
0.030454
0.0337699
0.0370645
0.0403356
0.0435813
0.0467995
0.0499881
0.0531451
0.0562685
0.0593564
0.0624069
0.0654179
0.0683876
0.071314
0.0741955
0.0770301
0.079816
0.0825515
0.0852349
0.0878644
0.0904385
0.0929554
0.0954136
0.0978115
0.100148
0.102421
0.104629
0.106771
0.108846
0.110852
0.112788
0.114652
0.116444
0.118163
0.119807
0.121376
0.122867
0.124282
0.125617
0.126874
0.12805
0.129145
0.130159
0.13109
0.131939
0.132704
0.133386
0.133983
0.134496
0.134924
0.135266
0.135523
0.135695
0.13578
0.13578
0.135695
0.135523
0.135266
0.134924
0.134496
0.133983
0.133386
0.132704
0.131939
0.13109
0.130159
0.129145
0.12805
0.126874
0.125617
0.124282
0.122867
0.121376
0.119807
0.118163
0.116444
0.114652
0.112788
0.110852
0.108846
0.106771
0.104629
0.102421
0.100148
0.0978115
0.0954136
0.0929554
0.0904385
0.0878644
0.0852349
0.0825515
0.079816
0.0770301
0.0741955
0.071314
0.0683875
0.0654179
0.0624068
0.0593564
0.0562685
0.0531451
0.049988
0.0467994
0.0435813
0.0403356
0.0370644
0.0337699
0.030454
0.0271188
0.0237666
0.0203993
0.0170191
0.0136282
0.0102287
0.00682273
0.00341244
0
0
-0.00391151
-0.00781215
-0.0116997
-0.015572
-0.0194268
-0.023262
-0.0270753
-0.0308646
-0.0346277
-0.0383624
-0.0420667
-0.0457384
-0.0493753
-0.0529755
-0.0565367
-0.060057
-0.0635344
-0.0669668
-0.0703521
-0.0736886
-0.0769742
-0.080207
-0.0833851
-0.0865067
-0.08957
-0.0925732
-0.0955145
-0.0983922
-0.101205
-0.10395
-0.106627
-0.109234
-0.111769
-0.114232
-0.116619
-0.118931
-0.121165
-0.123321
-0.125397
-0.127392
-0.129305
-0.131134
-0.132879
-0.134538
-0.136111
-0.137596
-0.138994
-0.140302
-0.14152
-0.142648
-0.143685
-0.14463
-0.145483
-0.146242
-0.146909
-0.147482
-0.147961
-0.148346
-0.148637
-0.148833
-0.148935
-0.148942
-0.148854
-0.148672
-0.148395
-0.148024
-0.14756
-0.147002
-0.14635
-0.145606
-0.14477
-0.143841
-0.142822
-0.141712
-0.140513
-0.139224
-0.137848
-0.136384
-0.134834
-0.133198
-0.131478
-0.129675
-0.12779
-0.125824
-0.123779
-0.121655
-0.119455
-0.117178
-0.114828
-0.112405
-0.109911
-0.107348
-0.104716
-0.102019
-0.099257
-0.0964322
-0.0935466
-0.0906018
-0.0875997
-0.0845423
-0.0814314
-0.0782691
-0.0750573
-0.0717981
-0.0684936
-0.0651457
-0.0617567
-0.0583286
-0.0548638
-0.0513642
-0.0478322
-0.0442699
-0.0406797
-0.0370638
-0.0334245
-0.029764
-0.0260848
-0.022389
-0.0186792
-0.0149575
-0.0112263
-0.0074881
-0.00374514
1.97652e-07
0.00374553
0.00748851
0.0112268
0.0149579
0.0186796
0.0223895
0.0260853
0.0297646
0.0334251
0.0370645
0.0406805
0.0442708
0.0478331
0.0513652
0.0548649
0.0583299
0.0617581
0.0651472
0.0684952
0.0718
0.0750594
0.0782714
0.081434
0.0845451
0.0876028
0.0906052
0.0935504
0.0964364
0.0992616
0.102024
0.104722
0.107354
0.109918
0.112413
0.114836
0.117187
0.119465
0.121666
0.123791
0.125838
0.127805
0.129691
0.131496
0.133217
0.134854
0.136406
0.137872
0.139251
0.140542
0.141744
0.142857
0.143879
0.144811
0.145651
0.146399
0.147054
0.147617
0.148087
0.148463
0.148745
0.148933
0.149027
0.149027
0.148933
0.148745
0.148463
0.148087
0.147617
0.147054
0.146399
0.145651
0.144811
0.143879
0.142857
0.141744
0.140542
0.139251
0.137872
0.136406
0.134854
0.133217
0.131496
0.129691
0.127805
0.125838
0.123791
0.121666
0.119465
0.117187
0.114836
0.112413
0.109918
0.107354
0.104722
0.102024
0.0992616
0.0964364
0.0935504
0.0906052
0.0876028
0.0845451
0.0814339
0.0782714
0.0750594
0.0718
0.0684952
0.0651472
0.061758
0.0583299
0.0548648
0.0513652
0.047833
0.0442707
0.0406804
0.0370644
0.033425
0.0297645
0.0260852
0.0223894
0.0186795
0.0149578
0.0112266
0.00748835
0.00374536
0
0
-0.00425672
-0.00850161
-0.0127323
-0.0169463
-0.0211413
-0.025315
-0.0294648
-0.0335885
-0.0376837
-0.0417481
-0.0457793
-0.049775
-0.053733
-0.0576509
-0.0615264
-0.0653574
-0.0691417
-0.072877
-0.0765611
-0.0801921
-0.0837676
-0.0872857
-0.0907443
-0.0941415
-0.0974751
-0.100743
-0.103944
-0.107076
-0.110137
-0.113124
-0.116038
-0.118875
-0.121634
-0.124313
-0.126912
-0.129427
-0.131859
-0.134205
-0.136464
-0.138635
-0.140717
-0.142707
-0.144606
-0.146412
-0.148123
-0.14974
-0.151261
-0.152684
-0.15401
-0.155238
-0.156366
-0.157394
-0.158322
-0.159149
-0.159875
-0.160498
-0.16102
-0.161439
-0.161755
-0.161969
-0.162079
-0.162087
-0.161991
-0.161793
-0.161492
-0.161088
-0.160583
-0.159975
-0.159266
-0.158457
-0.157546
-0.156536
-0.155427
-0.154219
-0.152914
-0.151512
-0.150014
-0.14842
-0.146733
-0.144954
-0.143082
-0.14112
-0.139069
-0.136929
-0.134703
-0.132392
-0.129997
-0.12752
-0.124962
-0.122326
-0.119612
-0.116822
-0.113958
-0.111023
-0.108017
-0.104943
-0.101803