# vtk DataFile Version 3.0
Scalar Field Data
ASCII
DATASET STRUCTURED_POINTS
DIMENSIONS 101 101 1
ORIGIN 0 0 0
SPACING 0.00990099 0.00990099 1
POINT_DATA 10201
SCALARS scalars double
LOOKUP_TABLE default
0
0
0
0
0
0
0
0
0
0
0
0
0
0
0
0
0
0
0
0
0
0
0
0
0
0
0
0
0
0
0
0
0
0
0
0
0
0
0
0
0
0
0
0
0
0
0
0
0
0
0
-0
-0
-0
-0
-0
-0
-0
-0
-0
-0
-0
-0
-0
-0
-0
-0
-0
-0
-0
-0
-0
-0
-0
-0
-0
-0
-0
-0
-0
-0
-0
-0
-0
-0
-0
-0
-0
-0
-0
-0
-0
-0
-0
-0
-0
-0
-0
-0
-0
-0
0
0.00386506
0.00771517
0.0115354
0.0153111
0.0190275
0.0226702
0.0262253
0.0296789
0.0330177
0.0362288
0.0392997
0.0422185
0.044974
0.0475556
0.0499531
0.0521574
0.0541599
0.0559528
0.0575293
0.0588832
0.0600093
0.0609033
0.0615616
0.0619817
0.0621621
0.062102
0.0618016
0.0612621
0.0604856
0.0594751
0.0582344
0.0567685
0.055083
0.0531844
0.05108
0.0487779
0.0462872
0.0436174
0.0407789
0.0377825
0.03464
0.0313635
0.0279657
0.0244597
0.020859
0.0171776
0.0134298
0.00963
0.00579296
0.00193351
-0.00193343
-0.00579288
-0.00962992
-0.0134297
-0.0171775
-0.0208589
-0.0244596
-0.0279656
-0.0313635
-0.03464
-0.0377825
-0.0407788
-0.0436174
-0.0462872
-0.0487779
-0.0510799
-0.0531843
-0.055083
-0.0567685
-0.0582344
-0.059475
-0.0604856
-0.0612621
-0.0618016
-0.062102
-0.0621621
-0.0619818
-0.0615616
-0.0609033
-0.0600094
-0.0588832
-0.0575293
-0.0559529
-0.0541599
-0.0521574
-0.0499531
-0.0475556
-0.0449741
-0.0422186
-0.0392997
-0.0362289
-0.0330178
-0.029679
-0.0262254
-0.0226703
-0.0190275
-0.0153111
-0.0115355
-0.00771525
-0.00386514
0
0.00771517
0.0154005
0.0230262
0.0305629
0.0379813
0.0452528
0.0523492
0.0592431
0.0659077
0.0723174
0.0784473
0.0842737
0.0897741
0.0949271
0.0997129
0.104113
0.10811
0.111689
0.114836
0.117539
0.119786
0.121571
0.122885
0.123724
0.124084
0.123964
0.123364
0.122287
0.120737
0.11872
0.116244
0.113317
0.109953
0.106163
0.101962
0.0973672
0.0923954
0.0870661
0.0814
0.0754189
0.0691461
0.0626057
0.0558232
0.0488247
0.0416373
0.0342888
0.0268076
0.0192227
0.0115635
0.00385953
-0.00385937
-0.0115633
-0.0192226
-0.0268075
-0.0342886
-0.0416371
-0.0488245
-0.055823
-0.0626056
-0.0691459
-0.0754188
-0.0813998
-0.087066
-0.0923953
-0.0973671
-0.101962
-0.106163
-0.109953
-0.113317
-0.116244
-0.11872
-0.120737
-0.122287
-0.123364
-0.123964
-0.124084
-0.123724
-0.122885
-0.121571
-0.119787
-0.117539
-0.114836
-0.111689
-0.10811
-0.104113
-0.099713
-0.0949272
-0.0897742
-0.0842738
-0.0784474
-0.0723175
-0.0659079
-0.0592432
-0.0523493
-0.0452529
-0.0379815
-0.030563
-0.0230264
-0.0154007
-0.00771533
0
0.0115354
0.0230262
0.034428
0.0456965
0.0567882
0.0676602
0.0782705
0.088578
0.0985427
0.108126
0.117291
0.126003
0.134227
0.141931
0.149087
0.155666
0.161642
0.166993
0.171699
0.175739
0.1791
0.181768
0.183733
0.184987
0.185525
0.185346
0.184449
0.182839
0.180522
0.177506
0.173803
0.169428
0.164397
0.158731
0.15245
0.14558
0.138146
0.130178
0.121706
0.112763
0.103385
0.0936057
0.0834647
0.0730008
0.0622545
0.0512673
0.0400817
0.0287411
0.0172893
0.00577063
-0.00577039
-0.0172891
-0.0287409
-0.0400815
-0.051267
-0.0622542
-0.0730006
-0.0834645
-0.0936055
-0.103384
-0.112763
-0.121706
-0.130178
-0.138146
-0.14558
-0.15245
-0.158731
-0.164397
-0.169428
-0.173803
-0.177506
-0.180522
-0.182839
-0.184449
-0.185346
-0.185525
-0.184987
-0.183733
-0.181768
-0.1791
-0.175739
-0.171699
-0.166994
-0.161642
-0.155666
-0.149087
-0.141932
-0.134227
-0.126003
-0.117292
-0.108126
-0.0985429
-0.0885782
-0.0782707
-0.0676605
-0.0567884
-0.0456967
-0.0344282
-0.0230265
-0.0115357
0
0.0153111
0.0305629
0.0456965
0.0606533
0.0753754
0.0898059
0.103889
0.11757
0.130796
0.143517
0.155682
0.167245
0.17816
0.188387
0.197884
0.206616
0.214549
0.221652
0.227897
0.23326
0.237721
0.241262
0.24387
0.245535
0.246249
0.246011
0.244821
0.242684
0.239608
0.235605
0.23069
0.224883
0.218206
0.210685
0.202348
0.193229
0.183362
0.172786
0.161541
0.149672
0.137223
0.124244
0.110783
0.0968945
0.0826308
0.0680474
0.0532008
0.0381483
0.0229482
0.0076594
-0.00765908
-0.0229479
-0.038148
-0.0532005
-0.0680471
-0.0826305
-0.0968942
-0.110783
-0.124243
-0.137223
-0.149672
-0.161541
-0.172786
-0.183362
-0.193229
-0.202348
-0.210684
-0.218206
-0.224883
-0.23069
-0.235605
-0.239608
-0.242684
-0.244821
-0.246011
-0.246249
-0.245535
-0.24387
-0.241262
-0.237721
-0.23326
-0.227897
-0.221652
-0.214549
-0.206616
-0.197884
-0.188387
-0.17816
-0.167245
-0.155682
-0.143517
-0.130797
-0.11757
-0.103889
-0.0898062
-0.0753757
-0.0606536
-0.0456968
-0.0305632
-0.0153114
0
0.0190275
0.0379813
0.0567882
0.0753754
0.093671
0.111604
0.129106
0.146108
0.162544
0.178352
0.19347
0.207839
0.221404
0.234113
0.245916
0.256768
0.266626
0.275452
0.283213
0.289878
0.295422
0.299823
0.303064
0.305132
0.30602
0.305724
0.304245
0.301589
0.297767
0.292792
0.286685
0.279468
0.27117
0.261823
0.251463
0.240131
0.227869
0.214726
0.200752
0.186001
0.170531
0.154401
0.137673
0.120413
0.102687
0.0845643
0.066114
0.0474079
0.0285184
0.00951853
-0.00951813
-0.028518
-0.0474075
-0.0661136
-0.0845639
-0.102687
-0.120413
-0.137673
-0.1544
-0.17053
-0.186001
-0.200751
-0.214726
-0.227869
-0.240131
-0.251463
-0.261823
-0.27117
-0.279468
-0.286684
-0.292792
-0.297767
-0.301589
-0.304245
-0.305724
-0.30602
-0.305132
-0.303064
-0.299823
-0.295422
-0.289879
-0.283213
-0.275452
-0.266626
-0.256768
-0.245916
-0.234113
-0.221405
-0.207839
-0.19347
-0.178352
-0.162545
-0.146108
-0.129106
-0.111605
-0.0936714
-0.0753758
-0.0567886
-0.0379817
-0.0190279
0
0.0226702
0.0452528
0.0676602
0.0898059
0.111604
0.132971
0.153823
0.17408
0.193663
0.212497
0.230509
0.24763
0.263792
0.278934
0.292996
0.305925
0.317671
0.328187
0.337434
0.345375
0.35198
0.357224
0.361085
0.363549
0.364607
0.364255
0.362493
0.359328
0.354774
0.348847
0.34157
0.332972
0.323085
0.311949
0.299606
0.286104
0.271494
0.255835
0.239185
0.221611
0.203179
0.183961
0.164031
0.143466
0.122347
0.100754
0.0787714
0.0564841
0.0339782
0.0113408
-0.0113404
-0.0339777
-0.0564836
-0.078771
-0.100754
-0.122346
-0.143466
-0.16403
-0.18396
-0.203178
-0.22161
-0.239185
-0.255834
-0.271494
-0.286103
-0.299606
-0.311949
-0.323085
-0.332972
-0.34157
-0.348847
-0.354774
-0.359328
-0.362493
-0.364255
-0.364607
-0.36355
-0.361085
-0.357224
-0.351981
-0.345375
-0.337434
-0.328187
-0.317671
-0.305926
-0.292997
-0.278934
-0.263792
-0.24763
-0.23051
-0.212498
-0.193664
-0.17408
-0.153823
-0.132971
-0.111605
-0.0898064
-0.0676607
-0.0452533
-0.0226707
0
0.0262253
0.0523492
0.0782705
0.103889
0.129106
0.153823
0.177945
0.201378
0.224033
0.24582
0.266657
0.286462
0.305159
0.322675
0.338943
0.3539
0.367487
0.379653
0.390349
0.399536
0.407177
0.413242
0.417709
0.42056
0.421784
0.421376
0.419338
0.415677
0.410408
0.403552
0.395134
0.385187
0.373751
0.360868
0.346589
0.330969
0.314069
0.295954
0.276694
0.256363
0.235041
0.212809
0.189754
0.165964
0.141533
0.116554
0.0911241
0.0653417
0.0393065
0.0131193
-0.0131187
-0.039306
-0.0653412
-0.0911236
-0.116553
-0.141532
-0.165964
-0.189753
-0.212808
-0.23504
-0.256363
-0.276693
-0.295954
-0.314069
-0.330969
-0.346589
-0.360868
-0.37375
-0.385187
-0.395134
-0.403552
-0.410408
-0.415677
-0.419338
-0.421376
-0.421784
-0.42056
-0.417709
-0.413243
-0.407177
-0.399536
-0.39035
-0.379653
-0.367487
-0.3539
-0.338943
-0.322676
-0.305159
-0.286463
-0.266658
-0.245821
-0.224033
-0.201379
-0.177945
-0.153823
-0.129106
-0.10389
-0.0782711
-0.0523497
-0.0262259
0
0.0296789
0.0592431
0.088578
0.11757
0.146108
0.17408
0.201378
0.227898
0.253536
0.278193
0.301773
0.324186
0.345345
0.365168
0.383579
0.400505
0.415881
0.429649
0.441754
0.452151
0.460798
0.467662
0.472718
0.475944
0.477329
0.476867
0.47456
0.470418
0.464455
0.456695
0.447169
0.435913
0.42297
0.408391
0.392231
0.374555
0.355429
0.334928
0.313132
0.290124
0.265993
0.240834
0.214742
0.18782
0.160171
0.131903
0.103124
0.0739466
0.0444828
0.014847
-0.0148463
-0.0444822
-0.073946
-0.103124
-0.131902
-0.160171
-0.18782
-0.214742
-0.240833
-0.265993
-0.290123
-0.313131
-0.334928
-0.355429
-0.374554
-0.392231
-0.40839
-0.42297
-0.435912
-0.447169
-0.456695
-0.464455
-0.470417
-0.47456
-0.476867
-0.477329
-0.475944
-0.472718
-0.467663
-0.460798
-0.452151
-0.441755
-0.429649
-0.415882
-0.400505
-0.383579
-0.365169
-0.345346
-0.324187
-0.301774
-0.278193
-0.253536
-0.227898
-0.201379
-0.17408
-0.146108
-0.117571
-0.0885786
-0.0592437
-0.0296796
0
0.0330177
0.0659077
0.0985427
0.130796
0.162544
0.193663
0.224033
0.253536
0.282058
0.309488
0.335722
0.360657
0.384196
0.406249
0.42673
0.44556
0.462667
0.477983
0.491451
0.503017
0.512636
0.520273
0.525897
0.529486
0.531027
0.530513
0.527947
0.523338
0.516705
0.508072
0.497474
0.484952
0.470553
0.454333
0.436356
0.416691
0.395414
0.372607
0.348358
0.322762
0.295917
0.267927
0.2389
0.208949
0.17819
0.146742
0.114725
0.0822654
0.049487
0.0165172
-0.0165165
-0.0494863
-0.0822647
-0.114725
-0.146741
-0.17819
-0.208949
-0.238899
-0.267926
-0.295916
-0.322761
-0.348357
-0.372606
-0.395413
-0.416691
-0.436356
-0.454333
-0.470552
-0.484951
-0.497474
-0.508072
-0.516705
-0.523338
-0.527947
-0.530513
-0.531027
-0.529486
-0.525897
-0.520273
-0.512637
-0.503017
-0.491451
-0.477984
-0.462667
-0.445561
-0.42673
-0.406249
-0.384196
-0.360657
-0.335722
-0.309489
-0.282058
-0.253536
-0.224033
-0.193664
-0.162545
-0.130797
-0.0985434
-0.0659084
-0.0330184
0
0.0362288
0.0723174
0.108126
0.143517
0.178352
0.212497
0.24582
0.278193
0.309488
0.339587
0.368372
0.395731
0.42156
0.445757
0.46823
0.488892
0.507662
0.524468
0.539245
0.551936
0.562492
0.570871
0.577042
0.58098
0.58267
0.582107
0.579291
0.574234
0.566956
0.557484
0.545855
0.532114
0.516315
0.498518
0.478793
0.457215
0.433869
0.408844
0.382237
0.354151
0.324695
0.293983
0.262134
0.22927
0.19552
0.161013
0.125883
0.0902659
0.0542997
0.0181235
-0.0181228
-0.054299
-0.0902651
-0.125882
-0.161012
-0.195519
-0.229269
-0.262133
-0.293982
-0.324694
-0.35415
-0.382236
-0.408843
-0.433868
-0.457215
-0.478793
-0.498518
-0.516315
-0.532114
-0.545855
-0.557483
-0.566955
-0.574234
-0.579291
-0.582107
-0.58267
-0.58098
-0.577042
-0.570871
-0.562492
-0.551936
-0.539246
-0.524469
-0.507663
-0.488892
-0.468231
-0.445758
-0.42156
-0.395732
-0.368372
-0.339588
-0.309489
-0.278193
-0.245821
-0.212498
-0.178353
-0.143518
-0.108127
-0.0723182
-0.0362295
0
0.0392997
0.0784473
0.117291
0.155682
0.19347
0.230509
0.266657
0.301773
0.335722
0.368372
0.399596
0.429275
0.457293
0.483542
0.50792
0.530332
0.550694
0.568924
0.584954
0.59872
0.610171
0.61926
0.625954
0.630226
0.63206
0.631448
0.628394
0.622908
0.615013
0.604738
0.592124
0.577218
0.56008
0.540775
0.519377
0.495971
0.470645
0.443499
0.414637
0.38417
0.352218
0.318902
0.284353
0.248704
0.212093
0.174661
0.136553
0.0979172
0.0589024
0.0196598
-0.0196589
-0.0589016
-0.0979163
-0.136552
-0.17466
-0.212092
-0.248703
-0.284352
-0.318902
-0.352217
-0.38417
-0.414636
-0.443498
-0.470645
-0.49597
-0.519377
-0.540774
-0.56008
-0.577218
-0.592123
-0.604738
-0.615013
-0.622908
-0.628394
-0.631448
-0.63206
-0.630226
-0.625954
-0.61926
-0.610171
-0.598721
-0.584954
-0.568925
-0.550694
-0.530333
-0.50792
-0.483542
-0.457293
-0.429276
-0.399597
-0.368372
-0.335723
-0.301774
-0.266658
-0.23051
-0.193471
-0.155683
-0.117292
-0.0784481
-0.0393005
0
0.0422185
0.0842737
0.126003
0.167245
0.207839
0.24763
0.286462
0.324186
0.360657
0.395731
0.429275
0.461158
0.491257
0.519455
0.545644
0.569721
0.591595
0.611179
0.628399
0.643188
0.655489
0.665254
0.672445
0.677034
0.679004
0.678347
0.675066
0.669173
0.660691
0.649653
0.636102
0.620089
0.601678
0.580939
0.557952
0.532807
0.505601
0.476438
0.445432
0.412703
0.378377
0.342588
0.305473
0.267176
0.227845
0.187633
0.146695
0.10519
0.0632772
0.0211199
-0.021119
-0.0632763
-0.105189
-0.146694
-0.187632
-0.227844
-0.267175
-0.305472
-0.342587
-0.378377
-0.412702
-0.445432
-0.476437
-0.5056
-0.532807
-0.557952
-0.580939
-0.601678
-0.620089
-0.636101
-0.649653
-0.660691
-0.669173
-0.675066
-0.678347
-0.679004
-0.677034
-0.672445
-0.665254
-0.655489
-0.643189
-0.6284
-0.61118
-0.591595
-0.569722
-0.545644
-0.519456
-0.491257
-0.461159
-0.429276
-0.395732
-0.360657
-0.324187
-0.286463
-0.247631
-0.20784
-0.167245
-0.126004
-0.0842746
-0.0422194
0
0.044974
0.0897741
0.134227
0.17816
0.221404
0.263792
0.305159
0.345345
0.384196
0.42156
0.457293
0.491257
0.52332
0.553359
0.581257
0.606906
0.630207
0.65107
0.669414
0.685168
0.698271
0.708673
0.716334
0.721222
0.723321
0.722621
0.719126
0.712848
0.703813
0.692055
0.677619
0.660561
0.640948
0.618856
0.594369
0.567582
0.5386
0.507534
0.474505
0.439639
0.403073
0.364948
0.32541
0.284614
0.242716
0.199879
0.15627
0.112055
0.0674071
0.0224984
-0.0224974
-0.0674062
-0.112054
-0.156269
-0.199879
-0.242715
-0.284613
-0.325409
-0.364947
-0.403072
-0.439639
-0.474504
-0.507534
-0.5386
-0.567582
-0.594368
-0.618855
-0.640948
-0.660561
-0.677618
-0.692054
-0.703813
-0.712848
-0.719126
-0.722621
-0.723321
-0.721223
-0.716334
-0.708674
-0.698272
-0.685168
-0.669414
-0.65107
-0.630207
-0.606906
-0.581257
-0.553359
-0.523321
-0.491257
-0.457294
-0.421561
-0.384197
-0.345346
-0.30516
-0.263793
-0.221405
-0.178161
-0.134228
-0.089775
-0.044975
0
0.0475556
0.0949271
0.141931
0.188387
0.234113
0.278934
0.322675
0.365168
0.406249
0.445757
0.483542
0.519455
0.553359
0.585122
0.614621
0.641742
0.666381
0.688441
0.707838
0.724497
0.738352
0.749351
0.757451
0.762621
0.76484
0.7641
0.760404
0.753766
0.744212
0.731779
0.716514
0.698478
0.677739
0.654378
0.628486
0.600162
0.569516
0.536667
0.501741
0.464875
0.42621
0.385896
0.344089
0.300951
0.256648
0.211353
0.165239
0.118487
0.0712763
0.0237898
-0.0237888
-0.0712753
-0.118486
-0.165239
-0.211352
-0.256647
-0.30095
-0.344088
-0.385895
-0.426209
-0.464874
-0.501741
-0.536666
-0.569515
-0.600161
-0.628485
-0.654378
-0.677738
-0.698477
-0.716514
-0.731778
-0.744212
-0.753766
-0.760404
-0.7641
-0.76484
-0.762621
-0.757451
-0.749352
-0.738353
-0.724497
-0.707839
-0.688442
-0.666381
-0.641743
-0.614621
-0.585122
-0.553359
-0.519456
-0.483542
-0.445758
-0.40625
-0.365169
-0.322676
-0.278935
-0.234114
-0.188388
-0.141932
-0.0949281
-0.0475566
0
0.0499531
0.0997129
0.149087
0.197884
0.245916
0.292996
0.338943
0.383579
0.42673
0.46823
0.50792
0.545644
0.581257
0.614621
0.645607
0.674096
0.699977
0.723149
0.743524
0.761023
0.775577
0.78713
0.795639
0.801069
0.8034
0.802622
0.79874
0.791767
0.781732
0.768672
0.752638
0.733692
0.711907
0.687369
0.660171
0.630419
0.598228
0.563723
0.527037
0.488312
0.447697
0.405351
0.361436
0.316123
0.269587
0.222008
0.17357
0.124461
0.0748698
0.0249892
-0.0249881
-0.0748687
-0.12446
-0.173569
-0.222007
-0.269586
-0.316122
-0.361435
-0.40535
-0.447696
-0.488311
-0.527036
-0.563722
-0.598228
-0.630419
-0.660171
-0.687368
-0.711907
-0.733691
-0.752637
-0.768671
-0.781731
-0.791767
-0.79874
-0.802622
-0.8034
-0.801069
-0.795639
-0.78713
-0.775577
-0.761023
-0.743525
-0.72315
-0.699977
-0.674096
-0.645608
-0.614621
-0.581257
-0.545644
-0.50792
-0.468231
-0.426731
-0.383579
-0.338944
-0.292997
-0.245917
-0.197885
-0.149088
-0.099714
-0.0499541
0
0.0521574
0.104113
0.155666
0.206616
0.256768
0.305925
0.3539
0.400505
0.44556
0.488892
0.530332
0.569721
0.606906
0.641742
0.674096
0.703842
0.730864
0.75506
0.776334
0.794604
0.8098
0.821864
0.830748
0.836417
0.838851
0.83804
0.833986
0.826706
0.816227
0.802591
0.785849
0.766067
0.743322
0.7177
0.689302
0.658238
0.624626
0.588598
0.550293
0.509859
0.467453
0.423238
0.377385
0.330073
0.281483
0.231805
0.181229
0.129953
0.0781735
0.0260919
-0.0260908
-0.0781724
-0.129952
-0.181228
-0.231804
-0.281482
-0.330072
-0.377384
-0.423237
-0.467452
-0.509858
-0.550293
-0.588598
-0.624626
-0.658237
-0.689302
-0.7177
-0.743321
-0.766067
-0.785849
-0.80259
-0.816227
-0.826706
-0.833986
-0.83804
-0.838851
-0.836417
-0.830748
-0.821864
-0.809801
-0.794604
-0.776334
-0.75506
-0.730865
-0.703842
-0.674096
-0.641743
-0.606906
-0.569722
-0.530333
-0.488893
-0.445561
-0.400506
-0.353901
-0.305926
-0.256769
-0.206617
-0.155667
-0.104114
-0.0521585
0
0.0541599
0.10811
0.161642
0.214549
0.266626
0.317671
0.367487
0.415881
0.462667
0.507662
0.550694
0.591595
0.630207
0.666381
0.699977
0.730864
0.758925
0.784049
0.80614
0.825112
0.840891
0.853418
0.862643
0.86853
0.871057
0.870215
0.866005
0.858446
0.847565
0.833405
0.81602
0.795479
0.77186
0.745255
0.715767
0.68351
0.648608
0.611197
0.571421
0.529434
0.4854
0.439487
0.391874
0.342745
0.29229
0.240704
0.188187
0.134942
0.0811749
0.0270936
-0.0270925
-0.0811737
-0.134941
-0.188186
-0.240703
-0.292289
-0.342744
-0.391873
-0.439486
-0.485399
-0.529434
-0.57142
-0.611196
-0.648607
-0.683509
-0.715766
-0.745255
-0.77186
-0.795479
-0.81602
-0.833404
-0.847564
-0.858445
-0.866005
-0.870215
-0.871057
-0.86853
-0.862643
-0.853418
-0.840892
-0.825112
-0.80614
-0.784049
-0.758925
-0.730865
-0.699977
-0.666381
-0.630207
-0.591595
-0.550695
-0.507663
-0.462668
-0.415882
-0.367488
-0.317672
-0.266627
-0.21455
-0.161643
-0.108111
-0.054161
0
0.0559528
0.111689
0.166993
0.221652
0.275452
0.328187
0.379653
0.429649
0.477983
0.524468
0.568924
0.611179
0.65107
0.688441
0.723149
0.75506
0.784049
0.810005
0.832827
0.852427
0.868729
0.88167
0.8912
0.897283
0.899894
0.899023
0.894674
0.886864
0.875623
0.860994
0.843035
0.821813
0.797413
0.769927
0.739462
0.706137
0.67008
0.63143
0.590338
0.546961
0.501469
0.454036
0.404847
0.354092
0.301966
0.248673
0.194417
0.139409
0.0838621
0.0279905
-0.0279894
-0.083861
-0.139408
-0.194416
-0.248672
-0.301965
-0.354091
-0.404846
-0.454035
-0.501468
-0.54696
-0.590337
-0.631429
-0.670079
-0.706136
-0.739462
-0.769926
-0.797412
-0.821813
-0.843034
-0.860994
-0.875623
-0.886864
-0.894674
-0.899023
-0.899894
-0.897283
-0.891201
-0.88167
-0.868729
-0.852427
-0.832827
-0.810005
-0.784049
-0.75506
-0.72315
-0.688442
-0.65107
-0.61118
-0.568925
-0.524469
-0.477984
-0.42965
-0.379654
-0.328188
-0.275453
-0.221653
-0.166995
-0.11169
-0.055954
0
0.0575293
0.114836
0.171699
0.227897
0.283213
0.337434
0.390349
0.441754
0.491451
0.539245
0.584954
0.628399
0.669414
0.707838
0.743524
0.776334
0.80614
0.832827
0.856292
0.876444
0.893206
0.906511
0.91631
0.922564
0.925248
0.924353
0.919882
0.911852
0.900294
0.885253
0.866787
0.844968
0.81988
0.79162
0.760297
0.726033
0.68896
0.649221
0.606971
0.562372
0.515598
0.466829
0.416254
0.364068
0.310474
0.255679
0.199895
0.143337
0.086225
0.0287792
-0.028778
-0.0862238
-0.143336
-0.199894
-0.255678
-0.310473
-0.364067
-0.416253
-0.466828
-0.515597
-0.562371
-0.60697
-0.64922
-0.688959
-0.726032
-0.760296
-0.791619
-0.819879
-0.844968
-0.866787
-0.885253
-0.900294
-0.911852
-0.919882
-0.924353
-0.925248
-0.922564
-0.91631
-0.906512
-0.893206
-0.876444
-0.856292
-0.832827
-0.80614
-0.776334
-0.743525
-0.707839
-0.669414
-0.6284
-0.584955
-0.539246
-0.491452
-0.441756
-0.39035
-0.337435
-0.283214
-0.227898
-0.1717
-0.114837
-0.0575305
0
0.0588832
0.117539
0.175739
0.23326
0.289878
0.345375
0.399536
0.452151
0.503017
0.551936
0.59872
0.643188
0.685168
0.724497
0.761023
0.794604
0.825112
0.852427
0.876444
0.897071
0.914227
0.927846
0.937875
0.944276
0.947024
0.946107
0.941531
0.933312
0.921482
0.906087
0.887187
0.864854
0.839175
0.81025
0.77819
0.743119
0.705174
0.6645
0.621255
0.575607
0.527732
0.477815
0.42605
0.372636
0.317781
0.261696
0.204599
0.146711
0.0882542
0.0294565
-0.0294552
-0.088253
-0.146709
-0.204598
-0.261695
-0.31778
-0.372635
-0.426049
-0.477814
-0.527731
-0.575606
-0.621254
-0.664499
-0.705173
-0.743119
-0.778189
-0.810249
-0.839175
-0.864854
-0.887186
-0.906087
-0.921482
-0.933312
-0.941531
-0.946107
-0.947024
-0.944276
-0.937875
-0.927846
-0.914227
-0.897071
-0.876445
-0.852427
-0.825112
-0.794605
-0.761023
-0.724497
-0.685169
-0.643189
-0.598721
-0.551937
-0.503018
-0.452152
-0.399537
-0.345376
-0.28988
-0.233261
-0.175741
-0.11754
-0.0588845
0
0.0600093
0.119786
0.1791
0.237721
0.295422
0.35198
0.407177
0.460798
0.512636
0.562492
0.610171
0.655489
0.698271
0.738352
0.775577
0.8098
0.840891
0.868729
0.893206
0.914227
0.931711
0.94559
0.955811
0.962335
0.965135
0.964201
0.959537
0.951161
0.939105
0.923416
0.904154
0.881394
0.855224
0.825746
0.793073
0.757331
0.71866
0.677208
0.633137
0.586615
0.537825
0.486953
0.434198
0.379763
0.323859
0.266701
0.208512
0.149516
0.089942
0.0300198
-0.0300186
-0.0899408
-0.149515
-0.208511
-0.2667
-0.323857
-0.379762
-0.434197
-0.486952
-0.537824
-0.586614
-0.633136
-0.677207
-0.718659
-0.75733
-0.793072
-0.825745
-0.855224
-0.881393
-0.904153
-0.923415
-0.939105
-0.951161
-0.959537
-0.964201
-0.965135
-0.962335
-0.955812
-0.94559
-0.931711
-0.914227
-0.893206
-0.868729
-0.840892
-0.809801
-0.775577
-0.738353
-0.698272
-0.65549
-0.610172
-0.562493
-0.512638
-0.460799
-0.407178
-0.351982
-0.295423
-0.237722
-0.179101
-0.119788
-0.0600106
0
0.0609033
0.121571
0.181768
0.241262
0.299823
0.357224
0.413242
0.467662
0.520273
0.570871
0.61926
0.665254
0.708673
0.749351
0.78713
0.821864
0.853418
0.88167
0.906511
0.927846
0.94559
0.959676
0.97005
0.97667
0.979512
0.978565
0.973831
0.96533
0.953094
0.937171
0.917623
0.894524
0.867964
0.838047
0.804887
0.768613
0.729366
0.687296
0.642568
0.595354
0.545837
0.494207
0.440666
0.38542
0.328683
0.270674
0.211618
0.151744
0.0912819
0.030467
-0.0304657
-0.0912806
-0.151742
-0.211617
-0.270673
-0.328682
-0.385419
-0.440665
-0.494206
-0.545836
-0.595353
-0.642567
-0.687295
-0.729365
-0.768612
-0.804886
-0.838046
-0.867964
-0.894523
-0.917622
-0.937171
-0.953094
-0.96533
-0.973831
-0.978565
-0.979512
-0.97667
-0.97005
-0.959677
-0.945591
-0.927846
-0.906512
-0.881671
-0.853418
-0.821865
-0.787131
-0.749352
-0.708674
-0.665255
-0.619261
-0.570872
-0.520274
-0.467664
-0.413244
-0.357225
-0.299824
-0.241264
-0.18177
-0.121572
-0.0609046
0
0.0615616
0.122885
0.183733
0.24387
0.303064
0.361085
0.417709
0.472718
0.525897
0.577042
0.625954
0.672445
0.716334
0.757451
0.795639
0.830748
0.862643
0.8912
0.91631
0.937875
0.955811
0.97005
0.980535
0.987227
0.9901
0.989142
0.984358
0.975765
0.963397
0.947302
0.927542
0.904193
0.877346
0.847105
0.813587
0.776921
0.737249
0.694726
0.649514
0.601789
0.551737
0.499549
0.445429
0.389586
0.332236
0.2736
0.213906
0.153384
0.0922686
0.0307963
-0.030795
-0.0922673
-0.153383
-0.213904
-0.273599
-0.332235
-0.389585
-0.445428
-0.499548
-0.551736
-0.601788
-0.649513
-0.694725
-0.737249
-0.77692
-0.813586
-0.847105
-0.877346
-0.904192
-0.927541
-0.947301
-0.963396
-0.975764
-0.984357
-0.989142
-0.9901
-0.987228
-0.980536
-0.97005
-0.955812
-0.937875
-0.916311
-0.891201
-0.862643
-0.830748
-0.795639
-0.757452
-0.716334
-0.672445
-0.625955
-0.577043
-0.525898
-0.472719
-0.417711
-0.361086
-0.303065
-0.243871
-0.183734
-0.122886
-0.0615629
0
0.0619817
0.123724
0.184987
0.245535
0.305132
0.363549
0.42056
0.475944
0.529486
0.58098
0.630226
0.677034
0.721222
0.762621
0.801069
0.836417
0.86853
0.897283
0.922564
0.944276
0.962335
0.97667
0.987227
0.993965
0.996857
0.995893
0.991076
0.982424
0.969972
0.953767
0.933872
0.910364
0.883334
0.852887
0.81914
0.782224
0.742281
0.699467
0.653947
0.605897
0.555502
0.502959
0.448469
0.392245
0.334503
0.275467
0.215366
0.154431
0.0928983
0.0310065
-0.0310052
-0.092897
-0.154429
-0.215364
-0.275466
-0.334502
-0.392244
-0.448468
-0.502958
-0.555501
-0.605896
-0.653946
-0.699466
-0.74228
-0.782223
-0.819139
-0.852886
-0.883333
-0.910363
-0.933871
-0.953766
-0.969972
-0.982424
-0.991076
-0.995893
-0.996857
-0.993965
-0.987228
-0.976671
-0.962335
-0.944276
-0.922564
-0.897283
-0.868531
-0.836418
-0.801069
-0.762622
-0.721223
-0.677035
-0.630227
-0.580981
-0.529487
-0.475945
-0.420561
-0.363551
-0.305134
-0.245536
-0.184988
-0.123725
-0.061983
0
0.0621621
0.124084
0.185525
0.246249
0.30602
0.364607
0.421784
0.477329
0.531027
0.58267
0.63206
0.679004
0.723321
0.76484
0.8034
0.838851
0.871057
0.899894
0.925248
0.947024
0.965135
0.979512
0.9901
0.996857
0.999758
0.998791
0.99396
0.985283
0.972794
0.956542
0.936589
0.913013
0.885904
0.855368
0.821523
0.7845
0.744441
0.701502
0.65585
0.60766
0.557119
0.504422
0.449774
0.393387
0.335477
0.276269
0.215992
0.15488
0.0931686
0.0310967
-0.0310954
-0.0931673
-0.154879
-0.215991
-0.276268
-0.335475
-0.393385
-0.449773
-0.504421
-0.557118
-0.607659
-0.655849
-0.701501
-0.74444
-0.784499
-0.821522
-0.855368
-0.885904
-0.913012
-0.936589
-0.956542
-0.972794
-0.985283
-0.99396
-0.998791
-0.999758
-0.996858
-0.9901
-0.979513
-0.965135
-0.947024
-0.925249
-0.899894
-0.871058
-0.838852
-0.8034
-0.764841
-0.723322
-0.679005
-0.632061
-0.582672
-0.531028
-0.47733
-0.421785
-0.364609
-0.306021
-0.24625
-0.185527
-0.124085
-0.0621634
0
0.062102
0.123964
0.185346
0.246011
0.305724
0.364255
0.421376
0.476867
0.530513
0.582107
0.631448
0.678347
0.722621
0.7641
0.802622
0.83804
0.870215
0.899023
0.924353
0.946107
0.964201
0.978565
0.989142
0.995893
0.998791
0.997825
0.992998
0.98433
0.971853
0.955617
0.935683
0.91213
0.885047
0.854541
0.820728
0.783741
0.743721
0.700824
0.655215
0.607072
0.55658
0.503934
0.449339
0.393006
0.335152
0.276002
0.215783
0.15473
0.0930785
0.0310667
-0.0310654
-0.0930772
-0.154729
-0.215782
-0.276
-0.335151
-0.393005
-0.449338
-0.503933
-0.556579
-0.607071
-0.655214
-0.700823
-0.74372
-0.78374
-0.820728
-0.85454
-0.885047
-0.912129
-0.935683
-0.955616
-0.971853
-0.98433
-0.992998
-0.997825
-0.998791
-0.995893
-0.989142
-0.978565
-0.964202
-0.946108
-0.924354
-0.899024
-0.870215
-0.83804
-0.802623
-0.764101
-0.722622
-0.678348
-0.631449
-0.582108
-0.530514
-0.476868
-0.421377
-0.364256
-0.305725
-0.246012
-0.185347
-0.123965
-0.0621033
0
0.0618016
0.123364
0.184449
0.244821
0.304245
0.362493
0.419338
0.47456
0.527947
0.579291
0.628394
0.675066
0.719126
0.760404
0.79874
0.833986
0.866005
0.894674
0.919882
0.941531
0.959537
0.973831
0.984358
0.991076
0.99396
0.992998
0.988195
0.979568
0.967152
0.950994
0.931157
0.907718
0.880766
0.850407
0.816758
0.77995
0.740123
0.697434
0.652046
0.604135
0.553887
0.501497
0.447166
0.391105
0.333531
0.274667
0.21474
0.153982
0.0926283
0.0309164
-0.0309151
-0.092627
-0.15398
-0.214738
-0.274665
-0.33353
-0.391104
-0.447165
-0.501496
-0.553886
-0.604134
-0.652045
-0.697433
-0.740123
-0.779949
-0.816758
-0.850407
-0.880766
-0.907717
-0.931157
-0.950994
-0.967152
-0.979568
-0.988195
-0.992998
-0.99396
-0.991076
-0.984358
-0.973831
-0.959538
-0.941531
-0.919883
-0.894675
-0.866006
-0.833987
-0.798741
-0.760405
-0.719127
-0.675067
-0.628395
-0.579292
-0.527948
-0.474561
-0.419339
-0.362494
-0.304247
-0.244822
-0.184451
-0.123365
-0.0618029
0
0.0612621
0.122287
0.182839
0.242684
0.301589
0.359328
0.415677
0.470418
0.523338
0.574234
0.622908
0.669173
0.712848
0.753766
0.791767
0.826706
0.858446
0.886864
0.911852
0.933312
0.951161
0.96533
0.975765
0.982424
0.985283
0.98433
0.979568
0.971017
0.958709
0.942693
0.923029
0.899794
0.873078
0.842984
0.809629
0.773141
0.733662
0.691345
0.646354
0.598861
0.549052
0.497119
0.443262
0.387691
0.330619
0.272269
0.212865
0.152638
0.0918197
0.0306465
-0.0306452
-0.0918184
-0.152636
-0.212864
-0.272268
-0.330618
-0.38769
-0.443261
-0.497118
-0.549051
-0.59886
-0.646353
-0.691345
-0.733662
-0.77314
-0.809628
-0.842983
-0.873077
-0.899793
-0.923028
-0.942692
-0.958709
-0.971017
-0.979568
-0.98433
-0.985283
-0.982424
-0.975765
-0.96533
-0.951161
-0.933312
-0.911853
-0.886865
-0.858446
-0.826706
-0.791768
-0.753767
-0.712849
-0.669174
-0.622909
-0.574235
-0.523339
-0.470419
-0.415678
-0.359329
-0.301591
-0.242685
-0.18284
-0.122288
-0.0612634
0
0.0604856
0.120737
0.180522
0.239608
0.297767
0.354774
0.410408
0.464455
0.516705
0.566956
0.615013
0.660691
0.703813
0.744212
0.781732
0.816227
0.847565
0.875623
0.900294
0.921482
0.939105
0.953094
0.963397
0.969972
0.972794
0.971853
0.967152
0.958709
0.946558
0.930744
0.911329
0.888389
0.862011
0.832299
0.799366
0.763341
0.724363
0.682583
0.638161
0.591271
0.542093
0.490818
0.437644
0.382777
0.326429
0.268818
0.210167
0.150703
0.0906558
0.0302581
-0.0302568
-0.0906546
-0.150702
-0.210166
-0.268817
-0.326428
-0.382776
-0.437643
-0.490817
-0.542092
-0.59127
-0.63816
-0.682582
-0.724362
-0.763341
-0.799366
-0.832298
-0.862011
-0.888388
-0.911329
-0.930743
-0.946557
-0.958709
-0.967152
-0.971853
-0.972794
-0.969972
-0.963397
-0.953095
-0.939105
-0.921482
-0.900295
-0.875624
-0.847565
-0.816228
-0.781732
-0.744213
-0.703814
-0.660692
-0.615014
-0.566957
-0.516706
-0.464456
-0.410409
-0.354775
-0.297768
-0.239609
-0.180523
-0.120738
-0.0604868
0
0.0594751
0.11872
0.177506
0.235605
0.292792
0.348847
0.403552
0.456695
0.508072
0.557484
0.604738
0.649653
0.692055
0.731779
0.768672
0.802591
0.833405
0.860994
0.885253
0.906087
0.923416
0.937171
0.947302
0.953767
0.956542
0.955617
0.950994
0.942693
0.930744
0.915194
0.896104
0.873547
0.84761
0.818394
0.786012
0.750589
0.712262
0.671179
0.6275
0.581393
0.533036
0.482618
0.430332
0.376382
0.320975
0.264327
0.206656
0.148185
0.0891413
0.0297525
-0.0297513
-0.08914
-0.148184
-0.206654
-0.264326
-0.320974
-0.376381
-0.430331
-0.482617
-0.533035
-0.581392
-0.627499
-0.671178
-0.712261
-0.750588
-0.786011
-0.818393
-0.847609
-0.873546
-0.896103
-0.915194
-0.930744
-0.942692
-0.950994
-0.955617
-0.956542
-0.953767
-0.947302
-0.937172
-0.923416
-0.906088
-0.885254
-0.860995
-0.833405
-0.802591
-0.768672
-0.731779
-0.692055
-0.649654
-0.604739
-0.557485
-0.508073
-0.456697
-0.403553
-0.348848
-0.292793
-0.235606
-0.177507
-0.118721
-0.0594763
0
0.0582344
0.116244
0.173803
0.23069
0.286685
0.34157
0.395134
0.447169
0.497474
0.545855
0.592124
0.636102
0.677619
0.716514
0.752638
0.785849
0.81602
0.843035
0.866787
0.887187
0.904154
0.917623
0.927542
0.933872
0.936589
0.935683
0.931157
0.923029
0.911329
0.896104
0.877412
0.855325
0.829929
0.801323
0.769616
0.734932
0.697404
0.657179
0.61441
0.569265
0.521918
0.472551
0.421356
0.368531
0.31428
0.258813
0.202345
0.145094
0.0872819
0.0291319
-0.0291307
-0.0872806
-0.145093
-0.202344
-0.258812
-0.314279
-0.36853
-0.421355
-0.47255
-0.521917
-0.569264
-0.614409
-0.657178
-0.697403
-0.734931
-0.769615
-0.801322
-0.829929
-0.855325
-0.877411
-0.896104
-0.911329
-0.923028
-0.931157
-0.935683
-0.936589
-0.933872
-0.927542
-0.917623
-0.904154
-0.887187
-0.866788
-0.843035
-0.816021
-0.78585
-0.752638
-0.716515
-0.67762
-0.636103
-0.592125
-0.545856
-0.497475
-0.44717
-0.395135
-0.341571